# vtk DataFile Version 2.0
Niestacjonarne zagadnienie cieplne - ogrzewanie wody w garnku stalowym
ASCII
DATASET UNSTRUCTURED_GRID
POINTS 1353 float
0.0 0.0 0.0
0.0 3.846153846153846E-4 0.0
0.0 7.692307692307692E-4 0.0
0.0 0.0011538461538461537 0.0
0.0 0.0015384615384615385 0.0
0.0 0.0019230769230769232 0.0
0.0 0.0023076923076923075 0.0
0.0 0.002692307692307692 0.0
0.0 0.003076923076923077 0.0
0.0 0.0034615384615384616 0.0
0.0 0.0038461538461538464 0.0
0.0 0.004230769230769231 0.0
0.0 0.004615384615384615 0.0
0.0 0.005 0.0
0.0 0.005111111111111111 0.0
0.0 0.005222222222222223 0.0
0.0 0.005333333333333333 0.0
0.0 0.0054444444444444445 0.0
0.0 0.005555555555555556 0.0
0.0 0.005666666666666667 0.0
0.0 0.0057777777777777775 0.0
0.0 0.005888888888888889 0.0
0.0 0.006 0.0
0.0 0.01711111111111111 0.0
0.0 0.028222222222222225 0.0
0.0 0.03933333333333333 0.0
0.0 0.050444444444444445 0.0
0.0 0.06155555555555556 0.0
0.0 0.07266666666666667 0.0
0.0 0.08377777777777778 0.0
0.0 0.0948888888888889 0.0
0.0 0.10600000000000001 0.0
0.0 0.10611111111111113 0.0
0.0 0.10622222222222223 0.0
0.0 0.10633333333333335 0.0
0.0 0.10644444444444445 0.0
0.0 0.10655555555555557 0.0
0.0 0.10666666666666667 0.0
0.0 0.10677777777777779 0.0
0.0 0.1068888888888889 0.0
0.0 0.10700000000000001 0.0
1.1111111111111112E-4 0.0 0.0
1.1111111111111112E-4 3.846153846153846E-4 0.0
1.1111111111111112E-4 7.692307692307692E-4 0.0
1.1111111111111112E-4 0.0011538461538461537 0.0
1.1111111111111112E-4 0.0015384615384615385 0.0
1.1111111111111112E-4 0.0019230769230769232 0.0
1.1111111111111112E-4 0.0023076923076923075 0.0
1.1111111111111112E-4 0.002692307692307692 0.0
1.1111111111111112E-4 0.003076923076923077 0.0
1.1111111111111112E-4 0.0034615384615384616 0.0
1.1111111111111112E-4 0.0038461538461538464 0.0
1.1111111111111112E-4 0.004230769230769231 0.0
1.1111111111111112E-4 0.004615384615384615 0.0
1.1111111111111112E-4 0.005 0.0
1.1111111111111112E-4 0.005111111111111111 0.0
1.1111111111111112E-4 0.005222222222222223 0.0
1.1111111111111112E-4 0.005333333333333333 0.0
1.1111111111111112E-4 0.0054444444444444445 0.0
1.1111111111111112E-4 0.005555555555555556 0.0
1.1111111111111112E-4 0.005666666666666667 0.0
1.1111111111111112E-4 0.0057777777777777775 0.0
1.1111111111111112E-4 0.005888888888888889 0.0
1.1111111111111112E-4 0.006 0.0
1.1111111111111112E-4 0.01711111111111111 0.0
1.1111111111111112E-4 0.028222222222222225 0.0
1.1111111111111112E-4 0.03933333333333333 0.0
1.1111111111111112E-4 0.050444444444444445 0.0
1.1111111111111112E-4 0.06155555555555556 0.0
1.1111111111111112E-4 0.07266666666666667 0.0
1.1111111111111112E-4 0.08377777777777778 0.0
1.1111111111111112E-4 0.0948888888888889 0.0
1.1111111111111112E-4 0.10600000000000001 0.0
1.1111111111111112E-4 0.10611111111111113 0.0
1.1111111111111112E-4 0.10622222222222223 0.0
1.1111111111111112E-4 0.10633333333333335 0.0
1.1111111111111112E-4 0.10644444444444445 0.0
1.1111111111111112E-4 0.10655555555555557 0.0
1.1111111111111112E-4 0.10666666666666667 0.0
1.1111111111111112E-4 0.10677777777777779 0.0
1.1111111111111112E-4 0.1068888888888889 0.0
1.1111111111111112E-4 0.10700000000000001 0.0
2.2222222222222223E-4 0.0 0.0
2.2222222222222223E-4 3.846153846153846E-4 0.0
2.2222222222222223E-4 7.692307692307692E-4 0.0
2.2222222222222223E-4 0.0011538461538461537 0.0
2.2222222222222223E-4 0.0015384615384615385 0.0
2.2222222222222223E-4 0.0019230769230769232 0.0
2.2222222222222223E-4 0.0023076923076923075 0.0
2.2222222222222223E-4 0.002692307692307692 0.0
2.2222222222222223E-4 0.003076923076923077 0.0
2.2222222222222223E-4 0.0034615384615384616 0.0
2.2222222222222223E-4 0.0038461538461538464 0.0
2.2222222222222223E-4 0.004230769230769231 0.0
2.2222222222222223E-4 0.004615384615384615 0.0
2.2222222222222223E-4 0.005 0.0
2.2222222222222223E-4 0.005111111111111111 0.0
2.2222222222222223E-4 0.005222222222222223 0.0
2.2222222222222223E-4 0.005333333333333333 0.0
2.2222222222222223E-4 0.0054444444444444445 0.0
2.2222222222222223E-4 0.005555555555555556 0.0
2.2222222222222223E-4 0.005666666666666667 0.0
2.2222222222222223E-4 0.0057777777777777775 0.0
2.2222222222222223E-4 0.005888888888888889 0.0
2.2222222222222223E-4 0.006 0.0
2.2222222222222223E-4 0.01711111111111111 0.0
2.2222222222222223E-4 0.028222222222222225 0.0
2.2222222222222223E-4 0.03933333333333333 0.0
2.2222222222222223E-4 0.050444444444444445 0.0
2.2222222222222223E-4 0.06155555555555556 0.0
2.2222222222222223E-4 0.07266666666666667 0.0
2.2222222222222223E-4 0.08377777777777778 0.0
2.2222222222222223E-4 0.0948888888888889 0.0
2.2222222222222223E-4 0.10600000000000001 0.0
2.2222222222222223E-4 0.10611111111111113 0.0
2.2222222222222223E-4 0.10622222222222223 0.0
2.2222222222222223E-4 0.10633333333333335 0.0
2.2222222222222223E-4 0.10644444444444445 0.0
2.2222222222222223E-4 0.10655555555555557 0.0
2.2222222222222223E-4 0.10666666666666667 0.0
2.2222222222222223E-4 0.10677777777777779 0.0
2.2222222222222223E-4 0.1068888888888889 0.0
2.2222222222222223E-4 0.10700000000000001 0.0
3.333333333333334E-4 0.0 0.0
3.333333333333334E-4 3.846153846153846E-4 0.0
3.333333333333334E-4 7.692307692307692E-4 0.0
3.333333333333334E-4 0.0011538461538461537 0.0
3.333333333333334E-4 0.0015384615384615385 0.0
3.333333333333334E-4 0.0019230769230769232 0.0
3.333333333333334E-4 0.0023076923076923075 0.0
3.333333333333334E-4 0.002692307692307692 0.0
3.333333333333334E-4 0.003076923076923077 0.0
3.333333333333334E-4 0.0034615384615384616 0.0
3.333333333333334E-4 0.0038461538461538464 0.0
3.333333333333334E-4 0.004230769230769231 0.0
3.333333333333334E-4 0.004615384615384615 0.0
3.333333333333334E-4 0.005 0.0
3.333333333333334E-4 0.005111111111111111 0.0
3.333333333333334E-4 0.005222222222222223 0.0
3.333333333333334E-4 0.005333333333333333 0.0
3.333333333333334E-4 0.0054444444444444445 0.0
3.333333333333334E-4 0.005555555555555556 0.0
3.333333333333334E-4 0.005666666666666667 0.0
3.333333333333334E-4 0.0057777777777777775 0.0
3.333333333333334E-4 0.005888888888888889 0.0
3.333333333333334E-4 0.006 0.0
3.333333333333334E-4 0.01711111111111111 0.0
3.333333333333334E-4 0.028222222222222225 0.0
3.333333333333334E-4 0.03933333333333333 0.0
3.333333333333334E-4 0.050444444444444445 0.0
3.333333333333334E-4 0.06155555555555556 0.0
3.333333333333334E-4 0.07266666666666667 0.0
3.333333333333334E-4 0.08377777777777778 0.0
3.333333333333334E-4 0.0948888888888889 0.0
3.333333333333334E-4 0.10600000000000001 0.0
3.333333333333334E-4 0.10611111111111113 0.0
3.333333333333334E-4 0.10622222222222223 0.0
3.333333333333334E-4 0.10633333333333335 0.0
3.333333333333334E-4 0.10644444444444445 0.0
3.333333333333334E-4 0.10655555555555557 0.0
3.333333333333334E-4 0.10666666666666667 0.0
3.333333333333334E-4 0.10677777777777779 0.0
3.333333333333334E-4 0.1068888888888889 0.0
3.333333333333334E-4 0.10700000000000001 0.0
4.4444444444444447E-4 0.0 0.0
4.4444444444444447E-4 3.846153846153846E-4 0.0
4.4444444444444447E-4 7.692307692307692E-4 0.0
4.4444444444444447E-4 0.0011538461538461537 0.0
4.4444444444444447E-4 0.0015384615384615385 0.0
4.4444444444444447E-4 0.0019230769230769232 0.0
4.4444444444444447E-4 0.0023076923076923075 0.0
4.4444444444444447E-4 0.002692307692307692 0.0
4.4444444444444447E-4 0.003076923076923077 0.0
4.4444444444444447E-4 0.0034615384615384616 0.0
4.4444444444444447E-4 0.0038461538461538464 0.0
4.4444444444444447E-4 0.004230769230769231 0.0
4.4444444444444447E-4 0.004615384615384615 0.0
4.4444444444444447E-4 0.005 0.0
4.4444444444444447E-4 0.005111111111111111 0.0
4.4444444444444447E-4 0.005222222222222223 0.0
4.4444444444444447E-4 0.005333333333333333 0.0
4.4444444444444447E-4 0.0054444444444444445 0.0
4.4444444444444447E-4 0.005555555555555556 0.0
4.4444444444444447E-4 0.005666666666666667 0.0
4.4444444444444447E-4 0.0057777777777777775 0.0
4.4444444444444447E-4 0.005888888888888889 0.0
4.4444444444444447E-4 0.006 0.0
4.4444444444444447E-4 0.01711111111111111 0.0
4.4444444444444447E-4 0.028222222222222225 0.0
4.4444444444444447E-4 0.03933333333333333 0.0
4.4444444444444447E-4 0.050444444444444445 0.0
4.4444444444444447E-4 0.06155555555555556 0.0
4.4444444444444447E-4 0.07266666666666667 0.0
4.4444444444444447E-4 0.08377777777777778 0.0
4.4444444444444447E-4 0.0948888888888889 0.0
4.4444444444444447E-4 0.10600000000000001 0.0
4.4444444444444447E-4 0.10611111111111113 0.0
4.4444444444444447E-4 0.10622222222222223 0.0
4.4444444444444447E-4 0.10633333333333335 0.0
4.4444444444444447E-4 0.10644444444444445 0.0
4.4444444444444447E-4 0.10655555555555557 0.0
4.4444444444444447E-4 0.10666666666666667 0.0
4.4444444444444447E-4 0.10677777777777779 0.0
4.4444444444444447E-4 0.1068888888888889 0.0
4.4444444444444447E-4 0.10700000000000001 0.0
5.555555555555556E-4 0.0 0.0
5.555555555555556E-4 3.846153846153846E-4 0.0
5.555555555555556E-4 7.692307692307692E-4 0.0
5.555555555555556E-4 0.0011538461538461537 0.0
5.555555555555556E-4 0.0015384615384615385 0.0
5.555555555555556E-4 0.0019230769230769232 0.0
5.555555555555556E-4 0.0023076923076923075 0.0
5.555555555555556E-4 0.002692307692307692 0.0
5.555555555555556E-4 0.003076923076923077 0.0
5.555555555555556E-4 0.0034615384615384616 0.0
5.555555555555556E-4 0.0038461538461538464 0.0
5.555555555555556E-4 0.004230769230769231 0.0
5.555555555555556E-4 0.004615384615384615 0.0
5.555555555555556E-4 0.005 0.0
5.555555555555556E-4 0.005111111111111111 0.0
5.555555555555556E-4 0.005222222222222223 0.0
5.555555555555556E-4 0.005333333333333333 0.0
5.555555555555556E-4 0.0054444444444444445 0.0
5.555555555555556E-4 0.005555555555555556 0.0
5.555555555555556E-4 0.005666666666666667 0.0
5.555555555555556E-4 0.0057777777777777775 0.0
5.555555555555556E-4 0.005888888888888889 0.0
5.555555555555556E-4 0.006 0.0
5.555555555555556E-4 0.01711111111111111 0.0
5.555555555555556E-4 0.028222222222222225 0.0
5.555555555555556E-4 0.03933333333333333 0.0
5.555555555555556E-4 0.050444444444444445 0.0
5.555555555555556E-4 0.06155555555555556 0.0
[...]
POINT_DATA 1353
SCALARS Temperatura float 1
LOOKUP_TABLE default
143.1436380278351
143.01932789435546
142.89314160360735
142.76503548798516
142.6349531830978
142.50281589329924
142.36851386026458
142.23189061891154
142.09271519161803
141.95061805067834
141.80500678118605
141.6546798529695
141.4979704499457
141.32557524080107
141.13877070828798
140.96468413622884
140.7940240577898
140.62511460937804
140.45685587234757
140.28846540135325
140.11929066877187
139.9487456626591
139.7762825108124
120.46782258068336
120.2732383934538
120.30644153926148
120.29820131357387
120.30052985476068
120.29871815378003
120.30436004411449
120.27412908512956
117.93293195408694
117.91211343479648
117.89154162061048
117.87116543543108
117.85093685901572
117.83081297148671
117.81075743670999
117.79074144413069
117.77074421943188
117.75075325031604
143.15105908859476
143.02674380828174
142.90055156671045
142.7724401600359
142.64235333355506
142.51021267016017
142.37590890764744
142.23928704833696
142.10011679939328
141.95803946139802
141.812442988431
141.66227350786227
141.5053278217793
141.33570878632634
141.1607743020934
140.98788829866538
140.81798704397963
140.64952712368935
140.48160617300823
140.31349874905783
140.14457860164265
139.97427113489738
139.80203298438317
120.48654194773431
120.29425650347028
120.32686224564631
120.31877898022006
120.321062101582
120.31927935379291
120.3248475388948
120.29489345937905
117.95284206425441
117.93204557159989
117.91149551386144
117.89113951371479
117.87092850063712
117.8508188101885
117.83077364978291
117.81076397488968
117.79076891797693
117.77077594252066
143.15866339798166
143.03434619056264
142.9081513096516
142.78003921351856
142.64995430322398
142.5178191587977
142.3835262924064
142.2469239147447
142.1077886417151
141.96577338822283
141.82029521562163
141.67036180422008
141.5138164426658
141.3473682331205
141.17773114428857
141.00866524510357
140.84066711493915
140.67352312229698
140.5066363489149
140.33942550998395
140.17132877142927
140.00180027370652
139.83030696950811
120.5016046013806
120.31630095520904
120.34709866637606
120.33949042524303
120.34163605834314
120.33994107670806
120.34528555939983
120.31617516000735
117.97251688394046
117.95179647041984
117.93132143991849
117.91103539341576
117.89088607607455
117.87082763544473
117.85082200255906
117.83083953360384
117.8108591661735
117.79086834441098
143.1664519525006
143.042134898257
142.91594068077939
142.78783243669926
142.65775579857444
142.52563495430698
142.39136526540784
142.25480031540255
142.1157275105019
141.97381956485756
141.82854164184286
141.67896778816834
141.52330069694318
141.35972989035355
141.19386270083967
141.0280491002433
140.8625596507646
140.69733472529327
140.53206418675737
140.3663085910649
140.19958005062713
140.03136465741656
139.86113642223603
120.51299834068304
120.33937655595025
120.36714913066623
120.36033623492744
120.36225149964093
120.36070358370822
120.36567355444619
120.33797557101683
117.99195298146827
117.97136735804258
117.9510247983733
117.93086170811407
117.91082036521294
117.89085141101486
117.87091495787689
117.85098069809544
117.83102751246354
117.81104297685813
143.17442519635645
143.05010982153667
142.92391939869083
142.79581947135884
142.66575733557306
142.53365935148307
142.39942471286597
142.26291432005192
142.1239297857045
141.9821720153735
141.83716408448254
141.68808814582684
141.53357076898223
141.37261543801023
141.2098998601899
141.04704012145638
140.8841643874233
140.7212308110783
140.55802960245987
140.3942222076397
140.22937947933872
140.06300834833908
139.8945743843767
120.52070328312188
120.36349119504214
120.38701087258843
120.38131737078653
120.38290804216784
120.38156730071687
120.38601059768473
120.36029698018028
118.01114448203515
117.99076092359255
117.97061577116084
117.95063416927806
117.93075045909526
117.91091083768836
117.89107368343097
117.87120855123132
117.85129482814871
117.83132061241488
143.18258323120494
143.05827076875798
142.93208707231867
142.80399981286385
142.67395824199156
142.54189138065527
142.4077031138726
142.27126327384119
142.13239080967165
141.9908212725085
141.84614532962908
141.69768791616403
141.54446632846927
141.3859496411255
141.22610336245114
141.06604607552083
140.90583328335248
140.74541878243923
140.58463932377308
140.423215649444
140.26075824085427
140.09677555898634
139.93069546990296
120.52469171620538
120.38865589056547
120.40668001588828
120.40243517498898
120.40360514123071
120.40253282560006
120.40629536357606
120.3831426651818
118.03008275405271
118.00998259529193
117.99011157281444
117.97037792910508
117.95070559673697
117.9310364631558
117.91132853365622
117.89155274441235
117.87169014227409
117.85173003854068
143.1909259153756
143.0666174265094
142.94044319966486
142.81237281491653
142.6823576668375
142.55032982958363
142.4161985707947
142.27984393719464
142.14110476347372
141.99975597255948
141.85546497069092
141.70771824025837
141.5558676375395
141.3996767914834
141.24256055974712
141.08523588233317
140.92772862122374
140.7699990637002
140.61192265001958
140.45327331299308
140.29369787504334
140.13269099944384
139.96959718755653
120.52492771775687
120.41488490072709
120.4261515403593
120.42369138138258
120.42434208455468
120.42360094010651
120.42652608767175
120.40651703661136
118.0487558868794
118.0290433380308
118.00954099567487
117.99013178372095
117.97072796931177
117.95127000911685
117.93171942429349
117.91205132530128
117.89225019736708
117.87230753188818
143.19945291498013
143.07514934856658
142.9489871635532
142.82093769515916
142.69095459268718
142.55897326657617
142.42490886496702
142.28865256910044
142.15006488844247
142.00896335884713
141.86509902239396
141.71812619387399
141.56768075902502
141.4137408550059
141.25927834845442
141.10465101323666
140.94988329279866
140.79495908136772
140.63980498695204
140.48426851980184
140.32807678701636
140.17072147005368
140.01140295427302
120.52136631546034
120.44219596159289
120.44541921317949
120.44508813675618
120.44511798142777
120.44477262965798
120.44670050074706
120.43042587637113
118.06714781670499
118.04796645915116
118.02895362248923
118.00995562585837
117.99087588117158
117.97166535124158
117.95229570095596
117.93275007574299
117.91301855420578
117.89309589791317
143.2081637332057
143.08386595596087
142.95771822918354
142.8296935410886
142.69974784950432
142.56782006850653
142.43383151600344
142.29768502912376
142.15926375703802
142.0184295988414
141.87502094537948
141.72885903064773
141.5798271003444
141.42808174785262
141.27621889744535
141.1242585532875
140.97224147232671
140.82019018579516
140.66809991848544
140.5159247136947
140.363545474783
140.2106895016859
140.05626856325645
120.51395171210203
120.47061077834141
120.46447545095099
120.46662804193754
120.46593174314583
120.46604911751017
120.46681571480998
120.45487675262648
118.0852367989277
118.06680160749974
118.0484466422748
118.0299375263113
118.01122554775833
117.99228816083529
117.97311500379524
117.95370110667481
117.93404410423949
117.91414296640777
143.21705772933439
143.09276654125864
142.96663554402247
142.83863931627536
142.7087361296423
142.5768684519009
142.44296384360723
142.30693689866854
142.1686935340071
142.02814017995183
141.88520289731275
141.7398655994297
141.59223698128883
141.44263617559295
141.29331945605594
141.14398256379621
140.99469092718175
140.84551371749242
140.69652565760518
140.54781006475608
140.3994638917472
140.2516064534092
124.52598484605579
124.52598484605579
124.52598484605579
124.52598484605579
124.52598484605579
124.52598484605579
124.52598484605579
124.52598484605579
124.52598484605579
124.52598484605579
118.08578421988389
118.0681742963292
118.05019481685446
118.03186877825478
118.01321320579088
117.9942407450952
117.97496057389131
117.95537894716665
117.9354995247741
144.4795589762955
144.35727962178078
144.23667985166554
144.1177813740324
144.0006202403492
143.8852470170771
143.77172697415762
143.6601401157649
143.55058070011097
143.44315555285445
143.33797979746424
143.2351674758277
143.13481435021365
143.03697533271495
142.9412445352722
142.84575713348357
142.75050926996803
142.6554961620334
142.56071160394123
142.46614713682382
142.37179068048363
142.2776241734941
124.52598484605579
124.52598484605579
124.52598484605579
124.52598484605579
124.52598484605579
124.52598484605579
124.52598484605579
124.52598484605579
124.52598484605579
124.52598484605579
120.5340510205424
120.50918281483035
120.48491168685096
120.4612293944007
120.43812961170725
120.41560749661032
120.39365944153924
120.37228292395534
120.35147641616868
145.30119735761468
145.17860980943257
145.05673683822184
144.93557018738795
144.81509586746392
144.69529395495312
144.57613832240787
144.45759634442481
144.33962867229712
144.2221892633188
144.10522603751136
143.98868285219046
143.87250355167558
143.75663749296882
143.64181024902118
143.5270391230079
143.4123213830745
143.2976545005079
143.18303628251175
143.06846509444946
142.95394022695038
142.83946252984754
124.52598484605579
124.52598484605579
124.52598484605579
124.52598484605579
124.52598484605579
124.52598484605579
124.52598484605579
124.52598484605579
124.52598484605579
124.52598484605579
120.5655307195891
120.54546409772915
120.52532850177602
120.50512708492698
120.48486233404817
120.46453618800926
120.44415010623287
120.42370511013529
120.40320180824813
145.7374485028706
145.6148961106836
145.49295236345822
145.37161967457803
145.2509020519729
145.13080520418222
145.01133668719737
144.89250608155976
144.7743251765356
144.65680811307462
144.53997138637214
144.42383352149312
144.30841421300502
144.19373307655133
144.080334504731
143.96703707085163
143.85384224129453
143.74075144326306
143.6277660304019
143.51488722434777
143.40211601729945
143.28945300280876
124.52598484605579
124.52598484605579
124.52598484605579
124.52598484605579
124.52598484605579
124.52598484605579
124.52598484605579
124.52598484605579
124.52598484605579
124.52598484605579
120.56532612600714
120.54404376283135
120.52286400980614
120.50178576025041
120.48080812536747
120.45993040166714
120.43915205191614
120.41847269351864
120.39789209142234
145.982972470339
145.86041781402417
145.73836508060592
145.6168136275453
145.4957622867269
145.3752093211202
145.25515236388296
145.13558834205875
145.0165133902606
144.89792276639756
144.77981079525856
144.66217088967164
144.54499570610932
144.42827739757394
144.31269519449776
144.19718628094586
144.0817499722451
143.96638558816764
143.85109246156946
143.73586995349956
143.62071747879497
143.5056345509841
124.52598484605579
124.52598484605579
124.52598484605579
124.52598484605579
124.52598484605579
124.52598484605579
124.52598484605579
124.52598484605579
124.52598484605579
124.52598484605579
120.56532819845393
120.54436345334622
120.52345571638756
120.50260533129037
120.48181257288732
120.46107765615824
120.44040074156888
120.41978193836205
120.3992213065836
146.11443102966703
145.9918747258817
145.8697631520622
145.74809651234494
145.62687509610745
145.50609929369872
145.3857696187886
145.26588673702176
145.14645149985967
145.02746498075132
144.90892850707456
144.79084367476062
144.67321233032848
144.5560365299618
144.44000354915812
144.3240455217698
144.20816265010916
144.09235513665294
143.97662318194588
143.86096698075858
143.74538671541467
143.62988254390342
124.52598484605579
124.52598484605579
124.52598484605579
124.52598484605579
124.52598484605579
124.52598484605579
124.52598484605579
124.52598484605579
124.52598484605579
124.52598484605579
120.56535727038678
120.5443092781515
120.52333045217543
120.50242066595737
120.48157981430242
120.46080781079421
120.44010458628055
120.41947008792839
120.39890427863685
146.17877576596112
146.05621982866913
145.93408277312096
145.81236460811405
145.69106528714352
145.5701847027859
145.4497226786389
145.32967895879773
145.21005319504565
145.09084493240596
144.97205359474512
144.85367847399377
144.7357187272415
144.6181733789532
144.50175022191047
144.38539802688828
144.26911669990233
144.15290614603515
144.03676626994337
143.92069697686475
143.80469817443492
143.6887697759984
124.52598484605579
124.52598484605579
124.52598484605579
124.52598484605579
124.52598484605579
124.52598484605579
124.52598484605579
124.52598484605579
124.52598484605579
124.52598484605579
120.56534267348364
120.54431690788141
120.52335700491982
120.5024629888131
120.48163487676234
120.46087267971377
120.44017640281982
120.41954604573091
120.39898160277869
146.19799314444444
146.07543687970437
145.95329094215856
145.8315554028464
145.71023032590156
145.58931577179305
145.46881180201217
145.34871848526416
145.2290359051401
145.109764169025
144.9909034174843
144.87245383243575
144.75441564204672
144.63678912376608
144.520284482326
144.40385082640637
144.28748819295222
144.17119661936292
144.05497614328058
143.9388268021301
143.82274863225268
143.70674166729185
124.52598484605579
124.52598484605579
124.52598484605579
124.52598484605579
124.52598484605579
124.52598484605579
124.52598484605579
124.52598484605579
124.52598484605579
124.52598484605579
120.56534932167607
120.5443162985448
120.52335023746396
120.50245110435387
120.48161886891381
120.46085350422752
120.44015498652017
120.41952329500346
120.39895841177731
146.17877576596084
146.05621982866882
145.9340827731206
145.81236460811357
145.69106528714278
145.57018470278481
145.44972267863753
145.32967895879622
145.21005319504397
145.09084493240394
144.97205359474265
144.85367847399084
144.7357187272381
144.61817337894928
144.50175022190606
144.38539802688342
144.26911669989713
144.15290614602955
144.03676626993746
143.9206969768586
143.80469817442867
143.68876977599206
124.52598484605579
124.52598484605579
124.52598484605579
124.52598484605579
124.52598484605579
124.52598484605579
124.52598484605579
124.52598484605579
124.52598484605579
124.52598484605579
120.56534267347192
120.54431690786969
120.52335700490808
120.50246298880133
120.48163487675053
120.46087267970188
120.44017640280786
120.41954604571895
120.39898160276672
146.1144310296738
145.99187472588844
145.869763152069
145.74809651235185
145.6268750961145
145.50609929370594
145.38576961879588
145.26588673702898
145.14645149986677
145.0274649807585
144.9089285070819
144.79084367476818
144.6732123303362
144.55603652996982
144.4400035491664
144.32404552177826
144.20816265011783
144.0923551366619
143.97662318195498
143.86096698076776
143.7453867154238
143.62988254391252
124.52598484605579
124.52598484605579
124.52598484605579
124.52598484605579
124.52598484605579
124.52598484605579
124.52598484605579
124.52598484605579
124.52598484605579
124.52598484605579
120.56535727035043
120.54430927811497
120.52333045213871
120.50242066592044
120.48157981426527
120.46080781075692
120.44010458624314
120.41947008789093
120.39890427859937
145.98297247034972
145.86041781403492
145.7383650806168
145.61681362755627
145.49576228673777
145.37520932113085
145.25515236389353
145.1355883420693
145.01651339027106
144.89792276640767
144.77981079526825
144.6621708896808
144.54499570611796
144.428277397582
144.31269519450535
144.1971862809531
144.0817499722521
143.96638558817443
143.85109246157612
143.73586995350604
143.6207174788014
143.50563455099044
124.52598484605579
124.52598484605579
124.52598484605579
124.52598484605579
124.52598484605579
124.52598484605579
124.52598484605579
124.52598484605579
124.52598484605579
124.52598484605579
120.56532819845124
120.54436345334355
120.52345571638493
120.50260533128778
120.4818125728848
120.46107765615584
120.44040074156652
120.41978193835965
120.3992213065812
145.73744850289523
145.61489611070826
145.49295236348283
145.37161967460256
145.25090205199737
145.13080520420664
145.0113366872217
144.892506081584
144.77432517655984
144.65680811309895
144.5399713863966
144.42383352151765
144.30841421302958
144.1937330765759
144.08033450475557
143.9670370708762
143.85384224131894
143.74075144328722
143.6277660304259
143.51488722437162
143.402116017323
143.28945300283206
124.52598484605579
124.52598484605579
124.52598484605579
124.52598484605579
124.52598484605579
124.52598484605579
124.52598484605579
124.52598484605579
124.52598484605579
124.52598484605579
120.5653261260013
120.54404376282547
120.5228640098002
120.50178576024447
120.48080812536152
120.45993040166114
120.43915205191014
120.41847269351268
120.39789209141641
145.30119735764558
145.1786098094635
145.0567368382529
144.9355701874192
144.8150958674953
144.69529395498466
144.57613832243962
144.45759634445673
144.33962867232913
144.22218926335088
144.10522603754356
143.9886828522228
143.87250355170818
143.7566374930017
143.6418102490544
143.52703912304142
143.4123213831083
143.29765450054205
143.1830362825461
143.068465094484
142.95394022698503
142.83946252988224
124.52598484605579
124.52598484605579
124.52598484605579
124.52598484605579
124.52598484605579
124.52598484605579
124.52598484605579
124.52598484605579
124.52598484605579
124.52598484605579
120.56553071956526
120.54546409770515
120.52532850175189
120.50512708490274
120.48486233402386
120.46453618798495
120.44415010620858
120.42370511011109
120.40320180822391
144.4795589763032
144.3572796217885
144.23667985167327
144.11778137404016
144.00062024035697
143.88524701708477
143.77172697416515
143.66014011577232
143.5505807001184
143.44315555286187
143.33797979747172
143.23516747583517
143.1348143502211
143.03697533272236
142.94124453527954
142.84575713349085
142.75050926997523
142.65549616204038
142.56071160394822
142.46614713683076
142.37179068049034
142.27762417350067
124.52598484605579
124.52598484605579
124.52598484605579
124.52598484605579
124.52598484605579
124.52598484605579
124.52598484605579
124.52598484605579
124.52598484605579
124.52598484605579
120.53405102054437
120.50918281483231
120.48491168685293
120.46122939440266
120.43812961170916
120.41560749661211
120.3936594415409
120.37228292395689
120.3514764161702
143.2170577293352
143.09276654125946
142.96663554402323
142.83863931627607
142.70873612964292
142.5768684519016
142.4429638436081
142.3069368986695
142.1686935340082
142.02814017995306
141.88520289731406
141.7398655994311
141.5922369812904
141.44263617559452
141.2933194560576
141.14398256379798
140.99469092718365
140.84551371749458
140.6965256576074
140.54781006475838
140.3994638917496
140.25160645341177
124.52598484605579
124.52598484605579
124.52598484605579
124.52598484605579
124.52598484605579
124.52598484605579
124.52598484605579
124.52598484605579
124.52598484605579
124.52598484605579
118.0857842198659
118.06817429631134
118.05019481683672
118.03186877823713
118.0132132057733
117.99424074507772
117.97496057387396
117.95537894714938
117.93549952475684
143.20816373320667
143.08386595596178
142.9577182291844
142.8296935410892
142.699747849505
142.56782006850725
142.4338315160044
142.29768502912478
142.1592637570392
142.01842959884272
141.87502094538073
141.7288590306494
141.5798271003461
141.42808174785426
141.27621889744714
141.12425855328928
140.97224147232868
140.8201901857972
140.6680999184876
140.51592471369693
140.3635454747853
140.2106895016883
140.0562685632589
120.51395171211686
120.47061077839278
120.46447545096973
120.4666280419557
120.46593174321679
120.46604911752702
120.46681571480741
120.45487675262996
118.08523679890963
118.06680160748162
118.04844664225674
118.02993752629331
118.01122554774048
117.9922881608175
117.97311500377754
117.95370110665714
117.93404410422191
117.91414296639014
143.19945291498115
143.07514934856755
142.948987163554
142.82093769515984
142.69095459268786
142.5589732665769
142.424908864968
142.2886525691016
142.1500648884437
142.00896335884855
141.86509902239527
141.7181261938757
141.5676807590269
141.41374085500763
141.2592783484563
141.10465101323862
140.94988329280062
140.79495908136985
140.63980498695418
140.484268519804
140.32807678701852
140.17072147005587
140.01140295427527
120.52136631547546
120.44219596164446
120.4454192131983
120.44508813677437
120.44511798149907
120.44477262967482
120.44670050074457
120.43042587637449
118.06714781668668
118.04796645913288
118.02895362247104
118.00995562584026
117.9908758811535