# vtk DataFile Version 2.0
Niestacjonarne zagadnienie cieplne - ogrzewanie wody w garnku stalowym
ASCII
DATASET UNSTRUCTURED_GRID
POINTS 1353 float
0.0 0.0 0.0
0.0 3.846153846153846E-4 0.0
0.0 7.692307692307692E-4 0.0
0.0 0.0011538461538461537 0.0
0.0 0.0015384615384615385 0.0
0.0 0.0019230769230769232 0.0
0.0 0.0023076923076923075 0.0
0.0 0.002692307692307692 0.0
0.0 0.003076923076923077 0.0
0.0 0.0034615384615384616 0.0
0.0 0.0038461538461538464 0.0
0.0 0.004230769230769231 0.0
0.0 0.004615384615384615 0.0
0.0 0.005 0.0
0.0 0.005111111111111111 0.0
0.0 0.005222222222222223 0.0
0.0 0.005333333333333333 0.0
0.0 0.0054444444444444445 0.0
0.0 0.005555555555555556 0.0
0.0 0.005666666666666667 0.0
0.0 0.0057777777777777775 0.0
0.0 0.005888888888888889 0.0
0.0 0.006 0.0
0.0 0.01711111111111111 0.0
0.0 0.028222222222222225 0.0
0.0 0.03933333333333333 0.0
0.0 0.050444444444444445 0.0
0.0 0.06155555555555556 0.0
0.0 0.07266666666666667 0.0
0.0 0.08377777777777778 0.0
0.0 0.0948888888888889 0.0
0.0 0.10600000000000001 0.0
0.0 0.10611111111111113 0.0
0.0 0.10622222222222223 0.0
0.0 0.10633333333333335 0.0
0.0 0.10644444444444445 0.0
0.0 0.10655555555555557 0.0
0.0 0.10666666666666667 0.0
0.0 0.10677777777777779 0.0
0.0 0.1068888888888889 0.0
0.0 0.10700000000000001 0.0
1.1111111111111112E-4 0.0 0.0
1.1111111111111112E-4 3.846153846153846E-4 0.0
1.1111111111111112E-4 7.692307692307692E-4 0.0
1.1111111111111112E-4 0.0011538461538461537 0.0
1.1111111111111112E-4 0.0015384615384615385 0.0
1.1111111111111112E-4 0.0019230769230769232 0.0
1.1111111111111112E-4 0.0023076923076923075 0.0
1.1111111111111112E-4 0.002692307692307692 0.0
1.1111111111111112E-4 0.003076923076923077 0.0
1.1111111111111112E-4 0.0034615384615384616 0.0
1.1111111111111112E-4 0.0038461538461538464 0.0
1.1111111111111112E-4 0.004230769230769231 0.0
1.1111111111111112E-4 0.004615384615384615 0.0
1.1111111111111112E-4 0.005 0.0
1.1111111111111112E-4 0.005111111111111111 0.0
1.1111111111111112E-4 0.005222222222222223 0.0
1.1111111111111112E-4 0.005333333333333333 0.0
1.1111111111111112E-4 0.0054444444444444445 0.0
1.1111111111111112E-4 0.005555555555555556 0.0
1.1111111111111112E-4 0.005666666666666667 0.0
1.1111111111111112E-4 0.0057777777777777775 0.0
1.1111111111111112E-4 0.005888888888888889 0.0
1.1111111111111112E-4 0.006 0.0
1.1111111111111112E-4 0.01711111111111111 0.0
1.1111111111111112E-4 0.028222222222222225 0.0
1.1111111111111112E-4 0.03933333333333333 0.0
1.1111111111111112E-4 0.050444444444444445 0.0
1.1111111111111112E-4 0.06155555555555556 0.0
1.1111111111111112E-4 0.07266666666666667 0.0
1.1111111111111112E-4 0.08377777777777778 0.0
1.1111111111111112E-4 0.0948888888888889 0.0
1.1111111111111112E-4 0.10600000000000001 0.0
1.1111111111111112E-4 0.10611111111111113 0.0
1.1111111111111112E-4 0.10622222222222223 0.0
1.1111111111111112E-4 0.10633333333333335 0.0
1.1111111111111112E-4 0.10644444444444445 0.0
1.1111111111111112E-4 0.10655555555555557 0.0
1.1111111111111112E-4 0.10666666666666667 0.0
1.1111111111111112E-4 0.10677777777777779 0.0
1.1111111111111112E-4 0.1068888888888889 0.0
1.1111111111111112E-4 0.10700000000000001 0.0
2.2222222222222223E-4 0.0 0.0
2.2222222222222223E-4 3.846153846153846E-4 0.0
2.2222222222222223E-4 7.692307692307692E-4 0.0
2.2222222222222223E-4 0.0011538461538461537 0.0
2.2222222222222223E-4 0.0015384615384615385 0.0
2.2222222222222223E-4 0.0019230769230769232 0.0
2.2222222222222223E-4 0.0023076923076923075 0.0
2.2222222222222223E-4 0.002692307692307692 0.0
2.2222222222222223E-4 0.003076923076923077 0.0
2.2222222222222223E-4 0.0034615384615384616 0.0
2.2222222222222223E-4 0.0038461538461538464 0.0
2.2222222222222223E-4 0.004230769230769231 0.0
2.2222222222222223E-4 0.004615384615384615 0.0
2.2222222222222223E-4 0.005 0.0
2.2222222222222223E-4 0.005111111111111111 0.0
2.2222222222222223E-4 0.005222222222222223 0.0
2.2222222222222223E-4 0.005333333333333333 0.0
2.2222222222222223E-4 0.0054444444444444445 0.0
2.2222222222222223E-4 0.005555555555555556 0.0
2.2222222222222223E-4 0.005666666666666667 0.0
2.2222222222222223E-4 0.0057777777777777775 0.0
2.2222222222222223E-4 0.005888888888888889 0.0
2.2222222222222223E-4 0.006 0.0
2.2222222222222223E-4 0.01711111111111111 0.0
2.2222222222222223E-4 0.028222222222222225 0.0
2.2222222222222223E-4 0.03933333333333333 0.0
2.2222222222222223E-4 0.050444444444444445 0.0
2.2222222222222223E-4 0.06155555555555556 0.0
2.2222222222222223E-4 0.07266666666666667 0.0
2.2222222222222223E-4 0.08377777777777778 0.0
2.2222222222222223E-4 0.0948888888888889 0.0
2.2222222222222223E-4 0.10600000000000001 0.0
2.2222222222222223E-4 0.10611111111111113 0.0
2.2222222222222223E-4 0.10622222222222223 0.0
2.2222222222222223E-4 0.10633333333333335 0.0
2.2222222222222223E-4 0.10644444444444445 0.0
2.2222222222222223E-4 0.10655555555555557 0.0
2.2222222222222223E-4 0.10666666666666667 0.0
2.2222222222222223E-4 0.10677777777777779 0.0
2.2222222222222223E-4 0.1068888888888889 0.0
2.2222222222222223E-4 0.10700000000000001 0.0
3.333333333333334E-4 0.0 0.0
3.333333333333334E-4 3.846153846153846E-4 0.0
3.333333333333334E-4 7.692307692307692E-4 0.0
3.333333333333334E-4 0.0011538461538461537 0.0
3.333333333333334E-4 0.0015384615384615385 0.0
3.333333333333334E-4 0.0019230769230769232 0.0
3.333333333333334E-4 0.0023076923076923075 0.0
3.333333333333334E-4 0.002692307692307692 0.0
3.333333333333334E-4 0.003076923076923077 0.0
3.333333333333334E-4 0.0034615384615384616 0.0
3.333333333333334E-4 0.0038461538461538464 0.0
3.333333333333334E-4 0.004230769230769231 0.0
3.333333333333334E-4 0.004615384615384615 0.0
3.333333333333334E-4 0.005 0.0
3.333333333333334E-4 0.005111111111111111 0.0
3.333333333333334E-4 0.005222222222222223 0.0
3.333333333333334E-4 0.005333333333333333 0.0
3.333333333333334E-4 0.0054444444444444445 0.0
3.333333333333334E-4 0.005555555555555556 0.0
3.333333333333334E-4 0.005666666666666667 0.0
3.333333333333334E-4 0.0057777777777777775 0.0
3.333333333333334E-4 0.005888888888888889 0.0
3.333333333333334E-4 0.006 0.0
3.333333333333334E-4 0.01711111111111111 0.0
3.333333333333334E-4 0.028222222222222225 0.0
3.333333333333334E-4 0.03933333333333333 0.0
3.333333333333334E-4 0.050444444444444445 0.0
3.333333333333334E-4 0.06155555555555556 0.0
3.333333333333334E-4 0.07266666666666667 0.0
3.333333333333334E-4 0.08377777777777778 0.0
3.333333333333334E-4 0.0948888888888889 0.0
3.333333333333334E-4 0.10600000000000001 0.0
3.333333333333334E-4 0.10611111111111113 0.0
3.333333333333334E-4 0.10622222222222223 0.0
3.333333333333334E-4 0.10633333333333335 0.0
3.333333333333334E-4 0.10644444444444445 0.0
3.333333333333334E-4 0.10655555555555557 0.0
3.333333333333334E-4 0.10666666666666667 0.0
3.333333333333334E-4 0.10677777777777779 0.0
3.333333333333334E-4 0.1068888888888889 0.0
3.333333333333334E-4 0.10700000000000001 0.0
4.4444444444444447E-4 0.0 0.0
4.4444444444444447E-4 3.846153846153846E-4 0.0
4.4444444444444447E-4 7.692307692307692E-4 0.0
4.4444444444444447E-4 0.0011538461538461537 0.0
4.4444444444444447E-4 0.0015384615384615385 0.0
4.4444444444444447E-4 0.0019230769230769232 0.0
4.4444444444444447E-4 0.0023076923076923075 0.0
4.4444444444444447E-4 0.002692307692307692 0.0
4.4444444444444447E-4 0.003076923076923077 0.0
4.4444444444444447E-4 0.0034615384615384616 0.0
4.4444444444444447E-4 0.0038461538461538464 0.0
4.4444444444444447E-4 0.004230769230769231 0.0
4.4444444444444447E-4 0.004615384615384615 0.0
4.4444444444444447E-4 0.005 0.0
4.4444444444444447E-4 0.005111111111111111 0.0
4.4444444444444447E-4 0.005222222222222223 0.0
4.4444444444444447E-4 0.005333333333333333 0.0
4.4444444444444447E-4 0.0054444444444444445 0.0
4.4444444444444447E-4 0.005555555555555556 0.0
4.4444444444444447E-4 0.005666666666666667 0.0
4.4444444444444447E-4 0.0057777777777777775 0.0
4.4444444444444447E-4 0.005888888888888889 0.0
4.4444444444444447E-4 0.006 0.0
4.4444444444444447E-4 0.01711111111111111 0.0
4.4444444444444447E-4 0.028222222222222225 0.0
4.4444444444444447E-4 0.03933333333333333 0.0
4.4444444444444447E-4 0.050444444444444445 0.0
4.4444444444444447E-4 0.06155555555555556 0.0
4.4444444444444447E-4 0.07266666666666667 0.0
4.4444444444444447E-4 0.08377777777777778 0.0
4.4444444444444447E-4 0.0948888888888889 0.0
4.4444444444444447E-4 0.10600000000000001 0.0
4.4444444444444447E-4 0.10611111111111113 0.0
4.4444444444444447E-4 0.10622222222222223 0.0
4.4444444444444447E-4 0.10633333333333335 0.0
4.4444444444444447E-4 0.10644444444444445 0.0
4.4444444444444447E-4 0.10655555555555557 0.0
4.4444444444444447E-4 0.10666666666666667 0.0
4.4444444444444447E-4 0.10677777777777779 0.0
4.4444444444444447E-4 0.1068888888888889 0.0
4.4444444444444447E-4 0.10700000000000001 0.0
5.555555555555556E-4 0.0 0.0
5.555555555555556E-4 3.846153846153846E-4 0.0
5.555555555555556E-4 7.692307692307692E-4 0.0
5.555555555555556E-4 0.0011538461538461537 0.0
5.555555555555556E-4 0.0015384615384615385 0.0
5.555555555555556E-4 0.0019230769230769232 0.0
5.555555555555556E-4 0.0023076923076923075 0.0
5.555555555555556E-4 0.002692307692307692 0.0
5.555555555555556E-4 0.003076923076923077 0.0
5.555555555555556E-4 0.0034615384615384616 0.0
5.555555555555556E-4 0.0038461538461538464 0.0
5.555555555555556E-4 0.004230769230769231 0.0
5.555555555555556E-4 0.004615384615384615 0.0
5.555555555555556E-4 0.005 0.0
5.555555555555556E-4 0.005111111111111111 0.0
5.555555555555556E-4 0.005222222222222223 0.0
5.555555555555556E-4 0.005333333333333333 0.0
5.555555555555556E-4 0.0054444444444444445 0.0
5.555555555555556E-4 0.005555555555555556 0.0
5.555555555555556E-4 0.005666666666666667 0.0
5.555555555555556E-4 0.0057777777777777775 0.0
5.555555555555556E-4 0.005888888888888889 0.0
5.555555555555556E-4 0.006 0.0
5.555555555555556E-4 0.01711111111111111 0.0
5.555555555555556E-4 0.028222222222222225 0.0
5.555555555555556E-4 0.03933333333333333 0.0
5.555555555555556E-4 0.050444444444444445 0.0
5.555555555555556E-4 0.06155555555555556 0.0
[...]
POINT_DATA 1353
SCALARS Temperatura float 1
LOOKUP_TABLE default
141.99599668943026
141.8714560587801
141.74505124912054
141.6167387242944
141.4864623503875
141.35414368718992
141.2196735075323
141.08289615796872
140.9435819393829
140.80136353006677
140.6556521630236
140.50525449854737
140.3485139904717
140.17620557266736
139.98961397535896
139.81561472602567
139.64500224223892
139.47611423731098
139.30785871924544
139.1394579578899
138.97026272152053
138.79968952030083
138.62719257360052
119.30736181782771
119.11253425506713
119.1457842545828
119.13753400443383
119.13986162656772
119.13806371750387
119.14364525232862
119.11375479503944
116.79851440152888
116.77793198890718
116.75759382309197
116.73744948682999
116.71745157893977
116.69755773263442
116.67773207990291
116.65794618128633
116.63817952999752
116.61841977480952
142.00334910816332
141.87880331516845
141.75239253631028
141.6240746987293
141.4937937772646
141.36147170809943
141.2269997570989
141.09022372725667
140.9509146033193
140.80871580010063
140.66301912704296
140.51277754467213
140.35580329121643
140.18624534293696
140.0114120277022
139.83860271388886
139.6687426888295
139.50030087534404
139.33238096930353
139.16426169566003
138.99531982829754
138.8249831464732
138.65271028282248
119.32584285967764
119.13331572071657
119.16596789534523
119.1578747000427
119.16015692672231
119.15838777713388
119.16389638251202
119.13427977628629
116.8181944558613
116.79763377869932
116.77731708208086
116.75719266419647
116.73721208703684
116.71733224878723
116.69751683082957
116.67773716272532
116.65797264566697
116.63821090451226
142.0108841156964
141.8863363765138
141.759922929233
141.631604361758
141.5013253017425
141.36900867673435
141.23454751514456
141.09779080670887
140.95851639604726
140.81637923454429
140.67080002670838
140.52079282781614
140.36421616779393
140.19780098615263
140.0282175281233
139.85919496669857
139.69122313353856
139.52408818578112
139.3571963935454
139.18996925650728
139.0218472878824
138.85228661282866
138.68075592228735
119.34066517030666
119.15512496371787
119.18596782605792
119.17834994248457
119.18049475477069
119.17881278353416
119.18410004149938
119.15531788299674
116.83764309692626
116.81715750978185
116.79691486586832
116.77685949320029
116.75693981023682
116.73711055516749
116.71733414933341
116.69758133068683
116.67783130804514
116.6580716871846
142.0186027093455
141.89405510071558
141.76764227718598
141.63932750280784
141.50905663195616
141.37675419052692
141.2423160374579
141.1055964986949
140.96638413395024
140.82435355881927
140.67897322739418
140.52932313653858
140.3736182127508
140.21005650065229
140.04421175582695
139.87841554801955
139.71293394701596
139.54770574757498
139.38242133437146
139.2166426879667
139.04988346200682
138.88163122467495
138.71136136512843
119.3518165681438
119.17796678744246
119.20578237696122
119.19896031782243
119.20087488621029
119.19933899581451
119.20425568464073
119.17687048297772
116.85685693622082
116.8365043924245
116.8163925040739
116.79645849603571
116.77664538956279
116.75690446151977
116.73719633784734
116.71749110111095
116.69776790406367
116.67801448253843
142.02650533468767
141.90195937936818
141.77555030035904
141.6472437656236
141.51698728655975
141.38470754843075
141.25030421718066
141.1136388855416
140.9745142215424
140.8326328359371
140.68752068547218
140.53836512396774
140.38380147600338
140.22283504100102
140.06011833584324
139.89725478089343
139.73436957396112
139.57141927604854
139.40819377330365
139.24435499362164
139.07947464587565
138.91306063540623
138.7445795210917
119.35927720144485
119.20184907499885
119.22540878363321
119.2197067871239
119.22129693912841
119.21996683633722
119.22436239638576
119.19893983692218
116.87583017276992
116.85567707982958
116.83576004672511
116.81600518146931
116.7963476701116
116.77673440208987
116.7571242915398
116.73748728541153
116.71780303627007
116.69805979563341
142.03459209530487
141.91004902282174
141.78364660991005
141.65535264829572
141.5251165970352
141.39286778645055
141.25851054281506
141.12191532974677
140.98290203205536
140.84120766439648
140.69642530507963
140.54788407348462
140.3946069799183
140.2360617775079
140.0761950480137
139.91611589828412
139.7558778042956
139.5954332553157
139.43461844121575
139.2731541232013
139.11065115936984
138.94661856562885
138.7804848317912
119.36301939756247
119.22678283651645
119.24484317164351
119.24059069192629
119.24176037073386
119.24069689783666
119.24441886656267
119.22152918344908
116.8945542834845
116.87468092847031
116.85503448562336
116.83552437741724
116.81607551437472
116.79663053131257
116.77714797403293
116.75759915314887
116.7379653598189
116.7182360431259
142.04286285199618
141.91832372021756
141.79193070667782
141.66365350797292
141.53344371704992
141.40123369938124
141.2669331284338
141.13042261272489
140.99154178533954
140.85006675875758
140.70566681776867
140.55783148290766
140.40591591562378
140.24968113757504
140.09252777577152
139.93516532270652
139.77761823405612
139.61984578676106
139.4617228517648
139.30302317473152
139.14339365780825
138.98232919867746
138.81917460366995
119.3630072805026
119.25278232126047
119.2640805227398
119.26161376529882
119.26226447118593
119.26152995522305
119.26442335116258
119.2446428802677
116.91301750758868
116.89352675953727
116.87424424118643
116.85505438033545
116.83587057067825
116.8166340339433
116.79730678716498
116.77786426195046
116.7582911438866
116.73857903427508
142.05131727387342
141.92678302842714
141.80040197690923
141.67214556642182
141.5419676346957
141.40980386376603
141.27556976896855
141.13915701755235
141.0004267677954
140.8591974493095
140.71522140211806
140.568154807649
140.4176349985416
140.26363715258844
140.10912256685467
139.95444300973082
139.79962195829322
139.64464255762587
139.4894309195341
139.33383429182436
139.17757969796756
139.0201588052903
138.8607720321188
119.35919592765693
119.27986525610632
119.28311460599191
119.28277815314057
119.28280835278873
119.28246698514612
119.2843736073078
119.268286639528
116.9312039837272
116.91223757651707
116.89343825600409
116.87465431371753
116.85579039372118
116.83679809243863
116.81764944120631
116.79832780388627
116.77882338788613
116.75913102283404
142.05995486764007
141.93542637210314
141.80905968978502
141.68082791588787
141.55068718620498
141.41857666571698
141.2844179991005
141.1481144302963
141.00954960123565
140.86858599730746
140.72506270085
140.5788016680583
140.42968612015562
140.27786978570137
140.12594104584497
139.97391503336704
139.8218318784694
139.66971359040588
139.51755499808402
139.36530987142956
139.2128589400769
139.05992943162082
138.90543267948783
119.35152959243723
119.30805333747752
119.30193783965808
119.30408645529559
119.30339093053409
119.30350919975736
119.30426678072737
119.29246793738446
116.94909224219734
116.930862365346
116.91271247972188
116.89441111776796
116.87591021924723
116.85718753308365
116.83823283400974
116.8190412183425
116.79961035291588
116.77993922183224
142.06877499659385
141.94425304793938
141.81790299727803
141.68969952525728
141.5596010708417
141.42755033178162
141.29347515463814
141.157290460434
141.01890250217846
140.87821798822682
140.73516306250227
140.58972125815927
140.44199998676683
140.29231578477186
140.1429200736322
139.99350470976066
139.84413478540068
139.69487915569468
139.54581225430397
139.39701713987765
139.24859053793432
139.10065156528572
123.32776946885143
123.32776946885143
123.32776946885143
123.32776946885143
123.32776946885143
123.32776946885143
123.32776946885143
123.32776946885143
123.32776946885143
123.32776946885143
116.94963364064506
116.93221917452307
116.91444061734343
116.89632067587543
116.87787616138496
116.85911956085684
116.84005993701308
116.82070346650045
116.80105376329792
143.32307710679714
143.20055787451278
143.07971501236756
142.96057013613895
142.84315914330608
142.727532384089
142.613754849895
142.50190620575785
142.39208031598176
142.28438357238142
142.17893065806538
142.07583523708968
141.97519287277808
141.8770585681836
141.78103177158616
141.68524833652492
141.58970443834173
141.494395321514
141.39931480012348
141.30445442683381
141.20980212455405
141.11533982712126
123.32776946885143
123.32776946885143
123.32776946885143
123.32776946885143
123.32776946885143
123.32776946885143
123.32776946885143
123.32776946885143
123.32776946885143
123.32776946885143
119.37077464182855
119.34618063274631
119.32217859307599
119.29876038061188
119.2759197457469
119.25365190427259
119.2319532915497
119.21082141486458
119.19025476439893
144.13956788330086
144.01674182648995
143.89463203539006
143.77323029084684
143.65252266616633
143.5324893267838
143.4131042613049
143.29433498828507
143.1761423308385
143.05848044376216
142.94129746332717
142.824537465474
142.7081444863443
142.59206801971058
142.4770339452456
142.36205668426805
142.2471335127481
142.1322619114448
142.01743969916345
141.9026652552533
141.78793788675563
141.67325846219387
123.32776946885143
123.32776946885143
123.32776946885143
123.32776946885143
123.32776946885143
123.32776946885143
123.32776946885143
123.32776946885143
123.32776946885143
123.32776946885143
119.40189772595157
119.38205248992136
119.36214052166828
119.34216493683655
119.32212819280757
119.30203220550094
119.28187841704663
119.26166783669682
119.24140106562731
144.5730379882626
144.45024694176593
144.3280670682771
144.20650077206724
144.08555204522057
143.96522657324945
143.84553188135513
143.72647751088928
143.60807520300617
143.49033904156076
143.37328545677894
143.25693290443485
143.14130101244106
143.02640933919292
142.9128030955378
142.79929856145148
142.6858971987762
142.5726004296812
142.45940960214816
142.34632593144875
142.23335040269714
142.12048360167415
123.32776946885143
123.32776946885143
123.32776946885143
123.32776946885143
123.32776946885143
123.32776946885143
123.32776946885143
123.32776946885143
123.32776946885143
123.32776946885143
119.4016951360864
119.3806475175574
119.3597028590953
119.33886006658149
119.3181182611856
119.29747674720859
119.27693499327614
119.25649262086684
119.23614939730822
144.8169986430573
144.69420534147477
144.57191715752063
144.45013345267742
144.32885306521885
144.20807426705548
144.08779470308676
143.96801131519334
143.84872025621874
143.72991680590755
143.61159531442567
143.49374922283516
143.3763712171268
143.2594534795848
143.1436753845402
143.02797127708257
142.9123404753522
142.7967823020907
142.68129609331763
142.56588121346184
142.4505370809638
142.33526321317296
123.32776946885143
123.32776946885143
123.32776946885143
123.32776946885143
123.32776946885143
123.32776946885143
123.32776946885143
123.32776946885143
123.32776946885143
123.32776946885143
119.40169718493395
119.38096369406499
119.36028806414294
119.33967063462082
119.31911167688197
119.29861140315069
119.27816997176315
119.25778749041706
119.237464018172
144.94761585584874
144.8248209154993
144.7024742627772
144.58057610215528
144.45912672303814
144.33812651542542
144.2175759921685
144.09747581751031
143.97782684080158
143.8586301325572
143.73988701634426
143.62159908350765
143.5037681755331
143.38639634343312
143.2701709037598
143.1540211213472
143.03794719801556
142.9219493357025
142.80602773435552
142.69018258808293
142.57441407847793
142.45872236273183
123.32776946885143
123.32776946885143
123.32776946885143
123.32776946885143
123.32776946885143
123.32776946885143
123.32776946885143
123.32776946885143
123.32776946885143
123.32776946885143
119.40172593532526
119.38091011217561
119.3601641740049
119.3394879954563
119.31888147222963
119.29834451858595
119.27787706585232
119.25747906148864
119.23715046850799
145.01154794281484
144.88875336763562
144.76638139953755
144.64443204846134
144.52290526931182
144.4018009563655
144.28111893524385
144.1608589524322
144.04102066251895
143.92160361379777
143.80260723390725
143.68403081905004
143.56587353102455
143.44813439938818
143.33152114092115
143.21497956926922
143.09850959102633
142.9821111118698
142.86578403707134
142.749528272506
142.63334372647066
142.51723031299488
123.32776946885143
123.32776946885143
123.32776946885143
123.32776946885143
123.32776946885143
123.32776946885143
123.32776946885143
123.32776946885143
123.32776946885143
123.32776946885143
119.40171149838672
119.38091765760448
119.36019043461515
119.3395298530567
119.31893592963438
119.29840867486908
119.27794809355284
119.25755418503694
119.23722694341276
145.03064185926573
144.90784695821964
144.78546616366125
144.66349954750385
144.5419471748095
144.42080910701625
144.3000854066055
144.17977614326819
144.05988140154713
143.9404012897125
143.821335949121
143.70268556237716
143.58445035824806
143.46663061470628
143.34993644025576
143.23331397780512
143.1167632643763
143.0002843374367
142.88387723468625
142.7675419935955
142.65127865053876
142.53508723917952
123.32776946885143
123.32776946885143
123.32776946885143
123.32776946885143
123.32776946885143
123.32776946885143
123.32776946885143
123.32776946885143
123.32776946885143
123.32776946885143
119.40171807333859
119.38091705478755
119.36018374131476
119.33951809892633
119.31892009736278
119.29838970970947
119.27792691215673
119.2575316838467
119.2372040067764
145.01154794281447
144.8887533676352
144.76638139953704
144.64443204846071
144.52290526931094
144.40180095636427
144.28111893524238
144.16085895243054
144.04102066251713
143.9216036137956
143.80260723390472
143.68403081904705
143.5658735310211
143.44813439938423
143.3315211409167
143.21497956926427
143.098509591021
142.98211111186413
142.8657840370653
142.74952827249976
142.6333437264643
142.51723031298843
123.32776946885143
123.32776946885143
123.32776946885143
123.32776946885143
123.32776946885143
123.32776946885143
123.32776946885143
123.32776946885143
123.32776946885143
123.32776946885143
119.40171149837519
119.38091765759296
119.36019043460361
119.33952985304515
119.31893592962278
119.29840867485738
119.27794809354108
119.25755418502517
119.23722694340101
144.94761585585536
144.82482091550594
144.70247426278388
144.580576102162
144.459126723045
144.33812651543238
144.2175759921755
144.09747581751728
143.97782684080846
143.85863013256414
143.7398870163514
143.62159908351495
143.5037681755406
143.3863963434409
143.27017090376788
143.1540211213555
143.03794719802406
142.92194933571128
142.80602773436445
142.69018258809194
142.5744140784869
142.45872236274076
123.32776946885143
123.32776946885143
123.32776946885143
123.32776946885143
123.32776946885143
123.32776946885143
123.32776946885143
123.32776946885143
123.32776946885143
123.32776946885143
119.40172593528926
119.38091011213945
119.36016417396854
119.33948799541974
119.31888147219287
119.29834451854906
119.27787706581532
119.25747906145158
119.23715046847093
144.81699864306788
144.69420534148534
144.57191715753135
144.45013345268822
144.3288530652296
144.20807426706602
144.08779470309725
143.96801131520377
143.84872025622903
143.72991680591755
143.61159531443528
143.49374922284423
143.3763712171353
143.25945347959274
143.14367538454766
143.0279712770897
142.91234047535906
142.79678230209734
142.68129609332414
142.5658812134682
142.45053708097015
142.33526321317927
123.32776946885143
123.32776946885143
123.32776946885143
123.32776946885143
123.32776946885143
123.32776946885143
123.32776946885143
123.32776946885143
123.32776946885143
123.32776946885143
119.4016971849312
119.38096369406226
119.36028806414025
119.33967063461817
119.31911167687939
119.29861140314823
119.27816997176073
119.2577874904146
119.23746401816956
144.57303798828698
144.4502469417903
144.32806706830144
144.20650077209152
144.08555204524478
143.9652265732736
143.8455318813792
143.72647751091327
143.60807520303018
143.4903390415848
143.37328545680307
143.2569329044591
143.14130101246536
143.02640933921728
142.91280309556217
142.79929856147584
142.68589719880043
142.57260042970515
142.45940960217195
142.34632593147236
142.23335040272045
142.12048360169723
123.32776946885143
123.32776946885143
123.32776946885143
123.32776946885143
123.32776946885143
123.32776946885143
123.32776946885143
123.32776946885143
123.32776946885143
123.32776946885143
119.4016951360808
119.38064751755175
119.35970285908958
119.33886006657576
119.31811826117988
119.29747674720281
119.27693499327034
119.25649262086107
119.23614939730248
144.13956788333158
144.0167418265207
143.89463203542093
143.77323029087788
143.6525226661975
143.53248932681512
143.41310426133643
143.29433498831673
143.17614233087025
143.05848044379402
142.94129746335915
142.8245374655061
142.70814448637663
142.59206801974318
142.47703394527852
142.3620566843013
142.24713351278166
142.13226191147874
142.0174396991976
141.90266525528764
141.7879378867901
141.67325846222838
123.32776946885143
123.32776946885143
123.32776946885143
123.32776946885143
123.32776946885143
123.32776946885143
123.32776946885143
123.32776946885143
123.32776946885143
123.32776946885143
119.40189772592811
119.38205248989775
119.3621405216445
119.34216493681267
119.32212819278362
119.30203220547698
119.2818784170227
119.26166783667296
119.24140106560347
143.32307710680504
143.20055787452068
143.07971501237546
142.96057013614686
142.84315914331398
142.7275323840968
142.61375484990268
142.5019062057654
142.3920803159893
142.28438357238895
142.17893065807297
142.07583523709732
141.9751928727857
141.87705856819116
141.78103177159363
141.6852483365323
141.589704438349
141.494395321521
141.39931480013047
141.30445442684072
141.20980212456075
141.11533982712785
123.32776946885143
123.32776946885143
123.32776946885143
123.32776946885143
123.32776946885143
123.32776946885143
123.32776946885143
123.32776946885143
123.32776946885143
123.32776946885143
119.37077464183054
119.3461806327483
119.32217859307798
119.29876038061386
119.27591974574884
119.25365190427443
119.23195329155143
119.21082141486622
119.19025476440055
142.06877499659473
141.9442530479403
141.81790299727888
141.68969952525808
141.55960107084246
141.42755033178244
141.29347515463914
141.15729046043515
141.0189025021797
140.8782179882282
140.73516306250374
140.58972125816084
140.4419999867685
140.29231578477354
140.14292007363403
139.99350470976262
139.8441347854028
139.69487915569707
139.54581225430638
139.3970171398802
139.248590537937
139.10065156528844
123.32776946885143
123.32776946885143
123.32776946885143
123.32776946885143
123.32776946885143
123.32776946885143
123.32776946885143
123.32776946885143
123.32776946885143
123.32776946885143
116.94963364062718
116.93221917450532
116.91444061732582
116.89632067585788
116.87787616136747
116.85911956083943
116.84005993699579
116.82070346648322
116.80105376328069
142.0599548676412
141.93542637210405
141.8090596897859
141.6808279158886
141.55068718620578
141.41857666571784
141.28441799910158
141.1481144302976
141.00954960123698
140.86858599730897
140.72506270085142
140.57880166806007
140.42968612015744
140.27786978570316
140.12594104584696
139.97391503336914
139.82183187847156
139.66971359040815
139.51755499808644
139.36530987143203
139.2128589400794
139.05992943162346
138.9054326794905
119.35152959245185
119.30805333752797
119.30193783967644
119.30408645531382
119.303390930604
119.30350919977397
119.30426678072473
119.29246793738776
116.9490922421794
116.93086236532797
116.91271247970396
116.89441111775008
116.87591021922954
116.85718753306598
116.83823283399214
116.81904121832498
116.79961035289841
116.77993922181466
142.05131727387462
141.926783028428
141.8004019769102
141.67214556642256
141.54196763469645
141.40980386376685
141.27556976896972
141.13915701755377
141.00042676779697
140.85919744931113
140.71522140211948
140.5681548076508
140.4176349985436
140.26363715259035
140.10912256685663
139.95444300973296
139.79962195829535
139.64464255762812
139.48943091953646
139.33383429182675
139.17757969796997
139.02015880529274
138.86077203212125
119.35919592767186
119.27986525615685
119.28311460601036
119.28277815315894
119.28280835285896
119.28246698516261
119.28437360730517
119.2682866395313
116.93120398370905
116.91223757649897
116.89343825598606
116.87465431369958
116.85579039370327