# vtk DataFile Version 2.0
Niestacjonarne zagadnienie cieplne - ogrzewanie wody w garnku stalowym
ASCII
DATASET UNSTRUCTURED_GRID
POINTS 1353 float
0.0 0.0 0.0
0.0 3.846153846153846E-4 0.0
0.0 7.692307692307692E-4 0.0
0.0 0.0011538461538461537 0.0
0.0 0.0015384615384615385 0.0
0.0 0.0019230769230769232 0.0
0.0 0.0023076923076923075 0.0
0.0 0.002692307692307692 0.0
0.0 0.003076923076923077 0.0
0.0 0.0034615384615384616 0.0
0.0 0.0038461538461538464 0.0
0.0 0.004230769230769231 0.0
0.0 0.004615384615384615 0.0
0.0 0.005 0.0
0.0 0.005111111111111111 0.0
0.0 0.005222222222222223 0.0
0.0 0.005333333333333333 0.0
0.0 0.0054444444444444445 0.0
0.0 0.005555555555555556 0.0
0.0 0.005666666666666667 0.0
0.0 0.0057777777777777775 0.0
0.0 0.005888888888888889 0.0
0.0 0.006 0.0
0.0 0.01711111111111111 0.0
0.0 0.028222222222222225 0.0
0.0 0.03933333333333333 0.0
0.0 0.050444444444444445 0.0
0.0 0.06155555555555556 0.0
0.0 0.07266666666666667 0.0
0.0 0.08377777777777778 0.0
0.0 0.0948888888888889 0.0
0.0 0.10600000000000001 0.0
0.0 0.10611111111111113 0.0
0.0 0.10622222222222223 0.0
0.0 0.10633333333333335 0.0
0.0 0.10644444444444445 0.0
0.0 0.10655555555555557 0.0
0.0 0.10666666666666667 0.0
0.0 0.10677777777777779 0.0
0.0 0.1068888888888889 0.0
0.0 0.10700000000000001 0.0
1.1111111111111112E-4 0.0 0.0
1.1111111111111112E-4 3.846153846153846E-4 0.0
1.1111111111111112E-4 7.692307692307692E-4 0.0
1.1111111111111112E-4 0.0011538461538461537 0.0
1.1111111111111112E-4 0.0015384615384615385 0.0
1.1111111111111112E-4 0.0019230769230769232 0.0
1.1111111111111112E-4 0.0023076923076923075 0.0
1.1111111111111112E-4 0.002692307692307692 0.0
1.1111111111111112E-4 0.003076923076923077 0.0
1.1111111111111112E-4 0.0034615384615384616 0.0
1.1111111111111112E-4 0.0038461538461538464 0.0
1.1111111111111112E-4 0.004230769230769231 0.0
1.1111111111111112E-4 0.004615384615384615 0.0
1.1111111111111112E-4 0.005 0.0
1.1111111111111112E-4 0.005111111111111111 0.0
1.1111111111111112E-4 0.005222222222222223 0.0
1.1111111111111112E-4 0.005333333333333333 0.0
1.1111111111111112E-4 0.0054444444444444445 0.0
1.1111111111111112E-4 0.005555555555555556 0.0
1.1111111111111112E-4 0.005666666666666667 0.0
1.1111111111111112E-4 0.0057777777777777775 0.0
1.1111111111111112E-4 0.005888888888888889 0.0
1.1111111111111112E-4 0.006 0.0
1.1111111111111112E-4 0.01711111111111111 0.0
1.1111111111111112E-4 0.028222222222222225 0.0
1.1111111111111112E-4 0.03933333333333333 0.0
1.1111111111111112E-4 0.050444444444444445 0.0
1.1111111111111112E-4 0.06155555555555556 0.0
1.1111111111111112E-4 0.07266666666666667 0.0
1.1111111111111112E-4 0.08377777777777778 0.0
1.1111111111111112E-4 0.0948888888888889 0.0
1.1111111111111112E-4 0.10600000000000001 0.0
1.1111111111111112E-4 0.10611111111111113 0.0
1.1111111111111112E-4 0.10622222222222223 0.0
1.1111111111111112E-4 0.10633333333333335 0.0
1.1111111111111112E-4 0.10644444444444445 0.0
1.1111111111111112E-4 0.10655555555555557 0.0
1.1111111111111112E-4 0.10666666666666667 0.0
1.1111111111111112E-4 0.10677777777777779 0.0
1.1111111111111112E-4 0.1068888888888889 0.0
1.1111111111111112E-4 0.10700000000000001 0.0
2.2222222222222223E-4 0.0 0.0
2.2222222222222223E-4 3.846153846153846E-4 0.0
2.2222222222222223E-4 7.692307692307692E-4 0.0
2.2222222222222223E-4 0.0011538461538461537 0.0
2.2222222222222223E-4 0.0015384615384615385 0.0
2.2222222222222223E-4 0.0019230769230769232 0.0
2.2222222222222223E-4 0.0023076923076923075 0.0
2.2222222222222223E-4 0.002692307692307692 0.0
2.2222222222222223E-4 0.003076923076923077 0.0
2.2222222222222223E-4 0.0034615384615384616 0.0
2.2222222222222223E-4 0.0038461538461538464 0.0
2.2222222222222223E-4 0.004230769230769231 0.0
2.2222222222222223E-4 0.004615384615384615 0.0
2.2222222222222223E-4 0.005 0.0
2.2222222222222223E-4 0.005111111111111111 0.0
2.2222222222222223E-4 0.005222222222222223 0.0
2.2222222222222223E-4 0.005333333333333333 0.0
2.2222222222222223E-4 0.0054444444444444445 0.0
2.2222222222222223E-4 0.005555555555555556 0.0
2.2222222222222223E-4 0.005666666666666667 0.0
2.2222222222222223E-4 0.0057777777777777775 0.0
2.2222222222222223E-4 0.005888888888888889 0.0
2.2222222222222223E-4 0.006 0.0
2.2222222222222223E-4 0.01711111111111111 0.0
2.2222222222222223E-4 0.028222222222222225 0.0
2.2222222222222223E-4 0.03933333333333333 0.0
2.2222222222222223E-4 0.050444444444444445 0.0
2.2222222222222223E-4 0.06155555555555556 0.0
2.2222222222222223E-4 0.07266666666666667 0.0
2.2222222222222223E-4 0.08377777777777778 0.0
2.2222222222222223E-4 0.0948888888888889 0.0
2.2222222222222223E-4 0.10600000000000001 0.0
2.2222222222222223E-4 0.10611111111111113 0.0
2.2222222222222223E-4 0.10622222222222223 0.0
2.2222222222222223E-4 0.10633333333333335 0.0
2.2222222222222223E-4 0.10644444444444445 0.0
2.2222222222222223E-4 0.10655555555555557 0.0
2.2222222222222223E-4 0.10666666666666667 0.0
2.2222222222222223E-4 0.10677777777777779 0.0
2.2222222222222223E-4 0.1068888888888889 0.0
2.2222222222222223E-4 0.10700000000000001 0.0
3.333333333333334E-4 0.0 0.0
3.333333333333334E-4 3.846153846153846E-4 0.0
3.333333333333334E-4 7.692307692307692E-4 0.0
3.333333333333334E-4 0.0011538461538461537 0.0
3.333333333333334E-4 0.0015384615384615385 0.0
3.333333333333334E-4 0.0019230769230769232 0.0
3.333333333333334E-4 0.0023076923076923075 0.0
3.333333333333334E-4 0.002692307692307692 0.0
3.333333333333334E-4 0.003076923076923077 0.0
3.333333333333334E-4 0.0034615384615384616 0.0
3.333333333333334E-4 0.0038461538461538464 0.0
3.333333333333334E-4 0.004230769230769231 0.0
3.333333333333334E-4 0.004615384615384615 0.0
3.333333333333334E-4 0.005 0.0
3.333333333333334E-4 0.005111111111111111 0.0
3.333333333333334E-4 0.005222222222222223 0.0
3.333333333333334E-4 0.005333333333333333 0.0
3.333333333333334E-4 0.0054444444444444445 0.0
3.333333333333334E-4 0.005555555555555556 0.0
3.333333333333334E-4 0.005666666666666667 0.0
3.333333333333334E-4 0.0057777777777777775 0.0
3.333333333333334E-4 0.005888888888888889 0.0
3.333333333333334E-4 0.006 0.0
3.333333333333334E-4 0.01711111111111111 0.0
3.333333333333334E-4 0.028222222222222225 0.0
3.333333333333334E-4 0.03933333333333333 0.0
3.333333333333334E-4 0.050444444444444445 0.0
3.333333333333334E-4 0.06155555555555556 0.0
3.333333333333334E-4 0.07266666666666667 0.0
3.333333333333334E-4 0.08377777777777778 0.0
3.333333333333334E-4 0.0948888888888889 0.0
3.333333333333334E-4 0.10600000000000001 0.0
3.333333333333334E-4 0.10611111111111113 0.0
3.333333333333334E-4 0.10622222222222223 0.0
3.333333333333334E-4 0.10633333333333335 0.0
3.333333333333334E-4 0.10644444444444445 0.0
3.333333333333334E-4 0.10655555555555557 0.0
3.333333333333334E-4 0.10666666666666667 0.0
3.333333333333334E-4 0.10677777777777779 0.0
3.333333333333334E-4 0.1068888888888889 0.0
3.333333333333334E-4 0.10700000000000001 0.0
4.4444444444444447E-4 0.0 0.0
4.4444444444444447E-4 3.846153846153846E-4 0.0
4.4444444444444447E-4 7.692307692307692E-4 0.0
4.4444444444444447E-4 0.0011538461538461537 0.0
4.4444444444444447E-4 0.0015384615384615385 0.0
4.4444444444444447E-4 0.0019230769230769232 0.0
4.4444444444444447E-4 0.0023076923076923075 0.0
4.4444444444444447E-4 0.002692307692307692 0.0
4.4444444444444447E-4 0.003076923076923077 0.0
4.4444444444444447E-4 0.0034615384615384616 0.0
4.4444444444444447E-4 0.0038461538461538464 0.0
4.4444444444444447E-4 0.004230769230769231 0.0
4.4444444444444447E-4 0.004615384615384615 0.0
4.4444444444444447E-4 0.005 0.0
4.4444444444444447E-4 0.005111111111111111 0.0
4.4444444444444447E-4 0.005222222222222223 0.0
4.4444444444444447E-4 0.005333333333333333 0.0
4.4444444444444447E-4 0.0054444444444444445 0.0
4.4444444444444447E-4 0.005555555555555556 0.0
4.4444444444444447E-4 0.005666666666666667 0.0
4.4444444444444447E-4 0.0057777777777777775 0.0
4.4444444444444447E-4 0.005888888888888889 0.0
4.4444444444444447E-4 0.006 0.0
4.4444444444444447E-4 0.01711111111111111 0.0
4.4444444444444447E-4 0.028222222222222225 0.0
4.4444444444444447E-4 0.03933333333333333 0.0
4.4444444444444447E-4 0.050444444444444445 0.0
4.4444444444444447E-4 0.06155555555555556 0.0
4.4444444444444447E-4 0.07266666666666667 0.0
4.4444444444444447E-4 0.08377777777777778 0.0
4.4444444444444447E-4 0.0948888888888889 0.0
4.4444444444444447E-4 0.10600000000000001 0.0
4.4444444444444447E-4 0.10611111111111113 0.0
4.4444444444444447E-4 0.10622222222222223 0.0
4.4444444444444447E-4 0.10633333333333335 0.0
4.4444444444444447E-4 0.10644444444444445 0.0
4.4444444444444447E-4 0.10655555555555557 0.0
4.4444444444444447E-4 0.10666666666666667 0.0
4.4444444444444447E-4 0.10677777777777779 0.0
4.4444444444444447E-4 0.1068888888888889 0.0
4.4444444444444447E-4 0.10700000000000001 0.0
5.555555555555556E-4 0.0 0.0
5.555555555555556E-4 3.846153846153846E-4 0.0
5.555555555555556E-4 7.692307692307692E-4 0.0
5.555555555555556E-4 0.0011538461538461537 0.0
5.555555555555556E-4 0.0015384615384615385 0.0
5.555555555555556E-4 0.0019230769230769232 0.0
5.555555555555556E-4 0.0023076923076923075 0.0
5.555555555555556E-4 0.002692307692307692 0.0
5.555555555555556E-4 0.003076923076923077 0.0
5.555555555555556E-4 0.0034615384615384616 0.0
5.555555555555556E-4 0.0038461538461538464 0.0
5.555555555555556E-4 0.004230769230769231 0.0
5.555555555555556E-4 0.004615384615384615 0.0
5.555555555555556E-4 0.005 0.0
5.555555555555556E-4 0.005111111111111111 0.0
5.555555555555556E-4 0.005222222222222223 0.0
5.555555555555556E-4 0.005333333333333333 0.0
5.555555555555556E-4 0.0054444444444444445 0.0
5.555555555555556E-4 0.005555555555555556 0.0
5.555555555555556E-4 0.005666666666666667 0.0
5.555555555555556E-4 0.0057777777777777775 0.0
5.555555555555556E-4 0.005888888888888889 0.0
5.555555555555556E-4 0.006 0.0
5.555555555555556E-4 0.01711111111111111 0.0
5.555555555555556E-4 0.028222222222222225 0.0
5.555555555555556E-4 0.03933333333333333 0.0
5.555555555555556E-4 0.050444444444444445 0.0
5.555555555555556E-4 0.06155555555555556 0.0
[...]
POINT_DATA 1353
SCALARS Temperatura float 1
LOOKUP_TABLE default
86.79267470712068
86.65704680635115
86.52013089934758
86.38188977282117
86.24227837915831
86.10123537515925
85.95867708308532
85.81448689042612
85.66849659619241
85.52044499055758
85.36991877661647
85.21611858873506
85.0578818795963
84.88974825938456
84.7133991745063
84.54360028323606
84.37527717577873
84.20742063556115
84.0393199546847
83.87042421104927
83.7002427107888
83.52831328135998
83.35419074997334
63.487405707821786
63.28087140592675
63.31637514120919
63.30764269898216
63.309926113223554
63.30879161667109
63.31146995822938
63.29795815871413
62.23127695495699
62.222051637987875
62.21295231989283
62.20396027486629
62.19505787952467
62.186229371587515
62.17746140049619
62.16874337708402
62.160067663149704
62.15142965521632
86.79672533829205
86.66109152906115
86.52416876897132
86.38592128576433
86.24630409562018
86.10525612854615
85.96269405136674
85.81850218068475
85.67251295493237
85.52447148674891
85.37395503447355
85.22024524399619
85.06189685576366
84.89527729493669
84.72531036486707
84.55618994003706
84.38831312372342
84.22074227553259
84.05287261832216
83.88418335612779
83.71419672573386
83.54245475345637
83.36851213429382
63.4944229391906
63.29026991180108
63.32515555916693
63.31658472146849
63.31882391252661
63.31770885740012
63.32035158601605
63.30696796656502
62.239890968086605
62.230673380550726
62.22158171444764
62.212596761271456
62.20370050789427
62.194876915641295
62.18611246447775
62.17739647838457
62.168721284602775
62.160082270713694
86.80092681955527
86.6652901462754
86.52836331882862
86.39011316072173
86.25049519907942
86.10944907762084
85.96689265689679
85.82271239972378
85.67674525393466
85.52874412871884
85.3783049699413
85.22474847871472
85.06666631401706
84.9018398256023
84.7348360920603
84.56789814388225
84.40119123727578
84.2344913624533
84.06735815560135
83.89934705442258
83.73001148042805
83.55890302602907
83.38557399461432
63.49768437925531
63.300765251036175
63.33377995457893
63.32569825472586
63.327803584571626
63.32674743360056
63.32928209380844
63.31628882937387
62.24846006793285
62.239269992390334
62.230205502487635
62.22124589776284
62.2123719832501
62.20356690783579
62.19481667743635
62.18611039354405
62.177440311218525
62.16880181104759
86.8052801872446
86.66964255633079
86.53271444386003
86.39446524296991
86.25485147777822
86.11381393222408
85.97127239223416
85.8271168953205
85.68119148640073
85.5332622434427
85.38295590920623
85.22963869212595
85.07211396360894
84.9089897105878
84.7442245899699
84.57926500219051
84.41416092496894
84.24877524253242
84.08282343637704
83.91593601508696
83.74770076808694
83.57767627158275
83.40540421570694
63.49717877808984
63.312362038967066
63.34224670699688
63.334983874143454
63.336864948174025
63.33590750468171
63.33826125123289
63.32592133590889
62.25698294272052
62.24784188930229
62.2388256478702
62.229910848692896
62.22107626714358
62.212303749558316
62.2035786260483
62.19488975171687
62.186229361023585
62.17759288392646
86.80978595294371
86.67414871924584
86.53722194086289
86.3989772707242
86.25937257964011
86.11835019134219
85.97583248374812
85.83171435517771
85.6858492383647
85.53802176702887
85.38789649398812
85.2349109504079
85.07812159007433
84.91662103405245
84.75385010222257
84.59080298137026
84.42746211334617
84.2637074821924
84.0993133944215
83.93396495438101
83.76727505319212
83.59879847395986
83.42804935484388
63.492887764300264
63.325067858574535
63.350553124436935
63.34444251936774
63.34600768852564
63.34518932170263
63.3472886621768
63.33586644428495
62.26545734269998
62.256389996584204
62.24744585566484
62.23859737257736
62.22982037427908
62.22109505390137
62.21240609655367
62.20374230701349
62.19509610907784
62.18646312757442
86.81444431288598
86.6788085412773
86.54188552802982
86.40364887309728
86.26405801460773
86.12305716398194
85.98057187258907
85.8365029763309
85.69071536858937
85.54301646116674
85.39311530674638
85.2405422935663
85.08459528179753
84.92467846061122
84.7638280150793
84.60269723091713
84.44124208027749
84.27935217285533
84.11683670775334
83.9534173656601
83.78872312429633
83.62228969232874
83.45357556290675
63.48478558181772
63.33889333752212
63.35869542021979
63.35407550154657
63.35523135431508
63.3545932305527
63.356363755675645
63.34612551402657
62.27387996376648
62.26491621947538
62.25607240393
62.247314698890946
62.238615055768236
62.22995205908008
62.22131025387786
62.212678961865215
62.20405122582272
62.195423122445135
86.81925524666232
86.68362183435337
86.54670484265732
86.40847957302371
86.26890716049589
86.12793398332671
85.9854892358971
85.84148054985111
85.69578596228993
85.54823880499842
85.39859872395863
85.2465013791573
85.09146091589851
84.93311294111045
84.77417356568898
84.61499404543021
84.45553119051108
84.29569567892443
84.13533499674769
83.97421388759317
83.81198308847038
83.64814877249272
83.4820704154678
63.47283857610817
63.35385229496486
63.366668670088906
63.36388451631667
63.36453535278316
63.364119677202645
63.36548577088601
63.35670035920736
62.282246253919894
62.27342446699285
62.26471582301143
62.256077089201
62.24747584812236
62.23889012200627
62.23030578034883
62.22171370245002
62.21310821152774
62.20448619544227
86.82421856769925
86.68858830426915
86.55167943565084
86.41346879064984
86.27391927070664
86.1329796220441
85.99058302263882
85.84664451749681
85.70105647374844
85.55368031213504
85.40433080578715
85.25275392425736
85.09865659837759
84.94187165585559
84.78485198096686
84.62766046946028
84.47027411451852
84.31264002628966
84.15466044844969
83.9961700048537
83.8368916963196
83.67631651042673
83.51364645126934
63.4570042155661
63.36996201569659
63.37446673411717
63.373871666766675
63.37391894132182
63.3737692163461
63.374653732272336
63.36759333677531
62.29055009019764
62.28192312670936
62.27339426293533
62.26490666541754
62.25642424657545
62.24792908049072
62.239410825268244
62.230863351754735
62.22228306306288
62.21366806258371
86.82933395182867
86.69370754987538
86.55680876766512
86.41861584664638
86.27909348300031
86.13819291062329
85.99585149225085
85.85199204011904
85.70652189870881
85.5593317550415
85.41029395332609
85.25926518866687
85.10612750501063
84.95089682846249
84.79579870428053
84.64061394412269
84.48535253074678
84.33001136544888
84.17456623445437
84.01895775809498
83.86305830953124
83.70659163666801
83.54844812823114
63.43722918878123
63.38724377501785
63.38208211022203
63.38403950542149
63.38338121269815
63.3835425260229
63.383866407595654
63.37880749702936
62.298783225961685
62.29042929754353
62.28214405765817
62.27383598463484
62.265488361876265
62.25709311404971
62.248646580755114
62.2401470465107
62.23159372068237
62.22298626963707
86.83460095550942
86.69897906639324
86.56209220744668
86.42391996558244
86.2844288290544
86.14357255765731
86.00129275523443
85.85752007757198
85.7121769439801
85.56518343631318
85.41646969636821
85.26600096979448
85.11382293381159
84.960127240946
84.80693191164434
84.65374194197248
84.50060625606643
84.34757850236647
84.19471920281403
84.04209897762861
83.88980361964134
83.73794272064222
65.69175806140429
65.69175806140429
65.69175806140429
65.69175806140429
65.69175806140429
65.69175806140429
65.69175806140429
65.69175806140429
65.69175806140429
65.69175806140429
62.29903493244483
62.29102227090229
62.28290838662958
62.2747020357048
62.266409735912575
62.25803634304067
62.249585388060005
62.24105927931068
62.23245942416386
87.69451191643182
87.56045419271128
87.42791822824024
87.29692119877534
87.1674915947025
87.03966936470772
86.91350610227447
86.78906515925813
86.66642145238787
86.54566050491628
86.42687581793635
86.31016288123699
86.1956076885743
86.08326961832562
85.97300480493931
85.86298171196479
85.75319808876368
85.64365048671488
85.53433367328108
85.42523975580231
85.31635680661917
85.20766653174218
65.69175806140429
65.69175806140429
65.69175806140429
65.69175806140429
65.69175806140429
65.69175806140429
65.69175806140429
65.69175806140429
65.69175806140429
65.69175806140429
63.41538305772754
63.40397833029298
63.39291985414704
63.38220429713491
63.37182907331635
63.36179218605456
63.35209213577689
63.34272786439975
63.3336987217588
88.26339494602166
88.12909625556561
87.99559506180736
87.8628849465237
87.73095500250018
87.59978967293291
87.46936852877187
87.33966601321228
87.21065121422825
87.08228778681392
86.95453426917696
86.82734525345133
86.70067400272251
86.57447658962951
86.44949364763805
86.32460097631082
86.19979622799652
86.07507733907867
85.95044268641944
85.82589132210796
85.70142334262685
85.5770405155334
65.69175806140429
65.69175806140429
65.69175806140429
65.69175806140429
65.69175806140429
65.69175806140429
65.69175806140429
65.69175806140429
65.69175806140429
65.69175806140429
63.42935241289804
63.420156177416175
63.4110010471373
63.401888331346534
63.392819069164574
63.38379407257543
63.37481395190697
63.365879131298755
63.356989858102274
88.56309271491108
88.42882202729295
88.2952841156148
88.16248094582299
88.03041574780086
87.89909309942665
87.76851904484847
87.63870124033133
87.50964911276876
87.38137399967067
87.25388920613135
87.12720985493262
87.0013523677829
86.87633354935119
86.75273796950043
86.62927159539939
86.50593567055635
86.38273137499053
86.2596597842875
86.13672180754502
86.01391808910006
85.89124884093684
65.69175806140429
65.69175806140429
65.69175806140429
65.69175806140429
65.69175806140429
65.69175806140429
65.69175806140429
65.69175806140429
65.69175806140429
65.69175806140429
63.429246204904516
63.41949016666891
63.40985392001518
63.40033697510129
63.39093893249111
63.38165947125232
63.372498341834984
63.363455361703714
63.35453041266144
88.73185561410124
88.59758310633156
88.46396938772763
88.33101401321308
88.19871612838688
88.06707443523808
87.93608714346207
87.80575190862201
87.67606576047982
87.5470250291042
87.41862528532866
87.29086132831742
87.16372726393405
87.03721668296977
86.91201588150518
86.78692264552348
86.66193642849241
86.53705669598902
86.41228293620732
86.28761467615347
86.16305150759766
86.03859313168583
65.69175806140429
65.69175806140429
65.69175806140429
65.69175806140429
65.69175806140429
65.69175806140429
65.69175806140429
65.69175806140429
65.69175806140429
65.69175806140429
63.42924711858194
63.41963731398498
63.41012639123013
63.400714484887004
63.39140170042024
63.38218811750792
63.37307379205231
63.36405875742819
63.355143025255025
88.82200275823716
88.68772903035719
88.55407471912119
88.42104004518328
88.2886252992516
88.15683085452143
88.02565718447624
87.8951048859336
87.76517470671212
87.6358675761905
87.50718463463609
87.37912725277852
87.25169703000368
87.12489576857817
86.99941275984413
86.87403926441947
86.74877546045455
86.62362152395619
86.49857762614354
86.3736439292662
86.24882057978432
86.12410769650522
65.69175806140429
65.69175806140429
65.69175806140429
65.69175806140429
65.69175806140429
65.69175806140429
65.69175806140429
65.69175806140429
65.69175806140429
65.69175806140429
63.42926040233143
63.41961227100246
63.41006859618147
63.400629307559605
63.391294343873405
63.38206365196856
63.37293718622457
63.36391490819251
63.354996786368744
88.8660857747998
88.73181234844404
88.59814072365353
88.46507096536173
88.33260309628142
88.20073709246132
88.06947287687002
87.93881031095545
87.80874918424425
87.67928920233705
87.55042997432187
87.42217100188672
87.2945116733316
87.16745126317336
87.04169383240661
86.91604295219267
86.79049855694106
86.66506058094176
86.53972895904644
86.41450362779099
86.28938452727428
86.16437160448311
65.69175806140429
65.69175806140429
65.69175806140429
65.69175806140429
65.69175806140429
65.69175806140429
65.69175806140429
65.69175806140429
65.69175806140429
65.69175806140429
63.429253659941104
63.41961576142603
63.41008080469407
63.400648785666114
63.39131969719349
63.38209352934137
63.37297026956586
63.36394990282722
63.355032411661426
88.87924097668424
88.74496730052172
88.61128952070283
88.47820775117647
88.34572210166111
88.2138326802063
88.08253959691689
87.95184296890439
87.82174292648513
87.69223962051159
87.56333323039894
87.43502397178423
87.30731210228672
87.18019792506706
87.05438691990501
86.92868257152637
86.80308492064798
86.67759400801843
86.55220987411145
86.42693255859896
86.30176209944446
86.17669853127197
65.69175806140429
65.69175806140429
65.69175806140429
65.69175806140429
65.69175806140429
65.69175806140429
65.69175806140429
65.69175806140429
65.69175806140429
65.69175806140429
63.429256711911776
63.41961547221788
63.410077678388404
63.400643300556794
63.391312310446374
63.38208468122185
63.37296038739522
63.36393940476513
63.355021710378146
88.86608577479956
88.73181234844377
88.59814072365323
88.46507096536136
88.3326030962809
88.2007370924606
88.06947287686914
87.93881031095447
87.80874918424317
87.67928920233578
87.55042997432034
87.42217100188492
87.2945116733295
87.16745126317096
87.0416938324039
86.91604295218967
86.79049855693786
86.66506058093832
86.53972895904279
86.41450362778723
86.28938452727044
86.16437160447923
65.69175806140429
65.69175806140429
65.69175806140429
65.69175806140429
65.69175806140429
65.69175806140429
65.69175806140429
65.69175806140429
65.69175806140429
65.69175806140429
63.42925365993486
63.41961576141979
63.41008080468782
63.40064878565986
63.3913196971872
63.38209352933503
63.3729702695595
63.36394990282086
63.35503241165506
88.8220027582411
88.68772903036111
88.55407471912515
88.4210400451873
88.2886252992557
88.15683085452564
88.02565718448047
87.8951048859378
87.76517470671625
87.63586757619467
87.50718463464037
87.37912725278291
87.25169703000819
87.12489576858285
86.99941275984898
86.87403926442445
86.74877546045968
86.62362152396152
86.49857762614896
86.37364392927167
86.24882057978975
86.12410769651063
65.69175806140429
65.69175806140429
65.69175806140429
65.69175806140429
65.69175806140429
65.69175806140429
65.69175806140429
65.69175806140429
65.69175806140429
65.69175806140429
63.42926040231223
63.41961227098316
63.41006859616207
63.40062930754008
63.39129434385378
63.382063651948876
63.37293718620482
63.36391490817274
63.35499678634898
88.73185561410762
88.59758310633795
88.46396938773408
88.33101401321956
88.19871612839331
88.06707443524442
87.93608714346837
87.80575190862828
87.676065760486
87.54702502911023
87.41862528533441
87.29086132832285
87.16372726393915
87.03721668297452
86.91201588150963
86.78692264552771
86.6619364284965
86.537056695993
86.41228293621121
86.28761467615726
86.16305150760144
86.03859313168958
65.69175806140429
65.69175806140429
65.69175806140429
65.69175806140429
65.69175806140429
65.69175806140429
65.69175806140429
65.69175806140429
65.69175806140429
65.69175806140429
63.42924711858055
63.4196373139836
63.410126391228765
63.40071448488568
63.391401700418946
63.382188117506686
63.373073792051095
63.36405875742696
63.35514302525379
88.56309271492577
88.42882202730763
88.29528411562944
88.16248094583759
88.03041574781543
87.89909309944117
87.76851904486296
87.63870124034575
87.5096491127832
87.38137399968512
87.25388920614586
87.12720985494718
87.0013523677975
86.87633354936581
86.75273796951505
86.629271595414
86.50593567057088
86.38273137500488
86.25965978430176
86.13672180755916
86.01391808911401
85.89124884095067
65.69175806140429
65.69175806140429
65.69175806140429
65.69175806140429
65.69175806140429
65.69175806140429
65.69175806140429
65.69175806140429
65.69175806140429
65.69175806140429
63.42924620490157
63.41949016666593
63.409853920012175
63.40033697509828
63.39093893248809
63.38165947124928
63.37249834183194
63.363455361700694
63.354530412658434
88.26339494604011
88.1290962555841
87.99559506182592
87.86288494654235
87.73095500251894
87.59978967295177
87.46936852879084
87.33966601323135
87.2106512142474
87.08228778683313
86.95453426919623
86.82734525347071
86.70067400274203
86.57447658964922
86.44949364765797
86.32460097633094
86.19979622801681
86.07507733909918
85.95044268644007
85.82589132212873
85.70142334264769
85.57704051555424
65.69175806140429
65.69175806140429
65.69175806140429
65.69175806140429
65.69175806140429
65.69175806140429
65.69175806140429
65.69175806140429
65.69175806140429
65.69175806140429
63.42935241288547
63.42015617740352
63.411001047124586
63.401888331333765
63.392819069151784
63.38379407256263
63.3748139518942
63.36587913128602
63.35698985808954
87.69451191643643
87.56045419271588
87.42791822824483
87.29692119877997
87.16749159470712
87.0396693647123
86.91350610227897
86.78906515926258
86.66642145239229
86.54566050492069
86.42687581794078
86.31016288124142
86.19560768857872
86.08326961833002
85.97300480494367
85.86298171196911
85.75319808876795
85.643650486719
85.53433367328518
85.42523975580633
85.31635680662305
85.20766653174597
65.69175806140429
65.69175806140429
65.69175806140429
65.69175806140429
65.69175806140429
65.69175806140429
65.69175806140429
65.69175806140429
65.69175806140429
65.69175806140429
63.415383057728704
63.403978330294144
63.39291985414819
63.38220429713607
63.37182907331747
63.361792186055624
63.35209213577789
63.34272786440069
63.333698721759724
86.83460095550979
86.6989790663936
86.56209220744705
86.42391996558274
86.2844288290547
86.14357255765768
86.00129275523489
85.85752007757253
85.71217694398078
85.56518343631399
85.41646969636906
85.2660009697954
85.11382293381257
84.96012724094702
84.80693191164544
84.65374194197365
84.50060625606768
84.3475785023679
84.1947192028155
84.04209897763016
83.88980361964298
83.73794272064391
65.69175806140429
65.69175806140429
65.69175806140429
65.69175806140429
65.69175806140429
65.69175806140429
65.69175806140429
65.69175806140429
65.69175806140429
65.69175806140429
62.29903493243532
62.29102227089283
62.28290838662021
62.274702035695476
62.26640973590331
62.25803634303144
62.249585388050846
62.24105927930157
62.23245942415475
86.82933395182907
86.6937075498758
86.55680876766549
86.41861584664666
86.27909348300065
86.13819291062372
85.99585149225138
85.85199204011978
85.70652189870957
85.55933175504234
85.41029395332696
85.25926518866792
85.10612750501177
84.95089682846354
84.79579870428172
84.64061394412391
84.48535253074813
84.3300113654503
84.17456623445587
84.01895775809643
83.86305830953279
83.70659163666963
83.54844812823286
63.43722918878854
63.387243775044844
63.38208211023201
63.38403950543103
63.38338121273538
63.38354252603136
63.38386640759426
63.37880749703099
62.298783225952114
62.29042929753395
62.282144057648644
62.27383598462536
62.26548836186683
62.25709311404036
62.248646580745756
62.24014704650141
62.231593720673075
62.222986269627825
86.82421856769982
86.68858830426957
86.55167943565132
86.41346879065013
86.27391927070693
86.1329796220447
85.9905830226393
85.84664451749761
85.70105647374926
85.55368031213585
85.40433080578804
85.25275392425843
85.09865659837872
84.94187165585672
84.78485198096806
84.62766046946157
84.47027411451982
84.31264002629108
84.15466044845111
83.9961700048552
83.83689169632112
83.67631651042826
83.51364645127099
63.457004215573555
63.36996201572367
63.374466734127104
63.37387166677629
63.373918941359186
63.3737692163546
63.37465373227094
63.36759333677687
62.290550090188
62.28192312669975
62.27339426292573
62.26490666540796
62.25642424656592
62.24792908048128
62.239410825258844
62.23086335174532
62.22228306305349
62.21366806257433
86.81925524666286
86.68362183435384
86.54670484265779
86.40847957302405
86.26890716049618
86.12793398332717
85.98548923589767
85.84148054985198
85.6957859622909
85.54823880499934
85.39859872395947
85.24650137915846
85.09146091589969
84.93311294111166
84.77417356569026
84.6149940454315
84.45553119051242
84.29569567892581
84.13533499674911
83.97421388759467
83.8119830884719
83.6481487724943
83.4820704154694
63.47283857611577
63.35385229499207
63.36666867009884
63.36388451632645
63.36453535282067
63.36411967721121
63.36548577088464
63.35670035920887
62.2822462539102
62.27342446698315
62.26471582300177
62.25607708919136
62.247475848112785
62.23889012199674
62.23030578033933
62.221713702440525
62.213108211518254
62.20448619543282
86.81444431288654