# vtk DataFile Version 2.0
Niestacjonarne zagadnienie cieplne - ogrzewanie wody w garnku stalowym
ASCII
DATASET UNSTRUCTURED_GRID
POINTS 1353 float
0.0 0.0 0.0
0.0 3.846153846153846E-4 0.0
0.0 7.692307692307692E-4 0.0
0.0 0.0011538461538461537 0.0
0.0 0.0015384615384615385 0.0
0.0 0.0019230769230769232 0.0
0.0 0.0023076923076923075 0.0
0.0 0.002692307692307692 0.0
0.0 0.003076923076923077 0.0
0.0 0.0034615384615384616 0.0
0.0 0.0038461538461538464 0.0
0.0 0.004230769230769231 0.0
0.0 0.004615384615384615 0.0
0.0 0.005 0.0
0.0 0.005111111111111111 0.0
0.0 0.005222222222222223 0.0
0.0 0.005333333333333333 0.0
0.0 0.0054444444444444445 0.0
0.0 0.005555555555555556 0.0
0.0 0.005666666666666667 0.0
0.0 0.0057777777777777775 0.0
0.0 0.005888888888888889 0.0
0.0 0.006 0.0
0.0 0.01711111111111111 0.0
0.0 0.028222222222222225 0.0
0.0 0.03933333333333333 0.0
0.0 0.050444444444444445 0.0
0.0 0.06155555555555556 0.0
0.0 0.07266666666666667 0.0
0.0 0.08377777777777778 0.0
0.0 0.0948888888888889 0.0
0.0 0.10600000000000001 0.0
0.0 0.10611111111111113 0.0
0.0 0.10622222222222223 0.0
0.0 0.10633333333333335 0.0
0.0 0.10644444444444445 0.0
0.0 0.10655555555555557 0.0
0.0 0.10666666666666667 0.0
0.0 0.10677777777777779 0.0
0.0 0.1068888888888889 0.0
0.0 0.10700000000000001 0.0
1.1111111111111112E-4 0.0 0.0
1.1111111111111112E-4 3.846153846153846E-4 0.0
1.1111111111111112E-4 7.692307692307692E-4 0.0
1.1111111111111112E-4 0.0011538461538461537 0.0
1.1111111111111112E-4 0.0015384615384615385 0.0
1.1111111111111112E-4 0.0019230769230769232 0.0
1.1111111111111112E-4 0.0023076923076923075 0.0
1.1111111111111112E-4 0.002692307692307692 0.0
1.1111111111111112E-4 0.003076923076923077 0.0
1.1111111111111112E-4 0.0034615384615384616 0.0
1.1111111111111112E-4 0.0038461538461538464 0.0
1.1111111111111112E-4 0.004230769230769231 0.0
1.1111111111111112E-4 0.004615384615384615 0.0
1.1111111111111112E-4 0.005 0.0
1.1111111111111112E-4 0.005111111111111111 0.0
1.1111111111111112E-4 0.005222222222222223 0.0
1.1111111111111112E-4 0.005333333333333333 0.0
1.1111111111111112E-4 0.0054444444444444445 0.0
1.1111111111111112E-4 0.005555555555555556 0.0
1.1111111111111112E-4 0.005666666666666667 0.0
1.1111111111111112E-4 0.0057777777777777775 0.0
1.1111111111111112E-4 0.005888888888888889 0.0
1.1111111111111112E-4 0.006 0.0
1.1111111111111112E-4 0.01711111111111111 0.0
1.1111111111111112E-4 0.028222222222222225 0.0
1.1111111111111112E-4 0.03933333333333333 0.0
1.1111111111111112E-4 0.050444444444444445 0.0
1.1111111111111112E-4 0.06155555555555556 0.0
1.1111111111111112E-4 0.07266666666666667 0.0
1.1111111111111112E-4 0.08377777777777778 0.0
1.1111111111111112E-4 0.0948888888888889 0.0
1.1111111111111112E-4 0.10600000000000001 0.0
1.1111111111111112E-4 0.10611111111111113 0.0
1.1111111111111112E-4 0.10622222222222223 0.0
1.1111111111111112E-4 0.10633333333333335 0.0
1.1111111111111112E-4 0.10644444444444445 0.0
1.1111111111111112E-4 0.10655555555555557 0.0
1.1111111111111112E-4 0.10666666666666667 0.0
1.1111111111111112E-4 0.10677777777777779 0.0
1.1111111111111112E-4 0.1068888888888889 0.0
1.1111111111111112E-4 0.10700000000000001 0.0
2.2222222222222223E-4 0.0 0.0
2.2222222222222223E-4 3.846153846153846E-4 0.0
2.2222222222222223E-4 7.692307692307692E-4 0.0
2.2222222222222223E-4 0.0011538461538461537 0.0
2.2222222222222223E-4 0.0015384615384615385 0.0
2.2222222222222223E-4 0.0019230769230769232 0.0
2.2222222222222223E-4 0.0023076923076923075 0.0
2.2222222222222223E-4 0.002692307692307692 0.0
2.2222222222222223E-4 0.003076923076923077 0.0
2.2222222222222223E-4 0.0034615384615384616 0.0
2.2222222222222223E-4 0.0038461538461538464 0.0
2.2222222222222223E-4 0.004230769230769231 0.0
2.2222222222222223E-4 0.004615384615384615 0.0
2.2222222222222223E-4 0.005 0.0
2.2222222222222223E-4 0.005111111111111111 0.0
2.2222222222222223E-4 0.005222222222222223 0.0
2.2222222222222223E-4 0.005333333333333333 0.0
2.2222222222222223E-4 0.0054444444444444445 0.0
2.2222222222222223E-4 0.005555555555555556 0.0
2.2222222222222223E-4 0.005666666666666667 0.0
2.2222222222222223E-4 0.0057777777777777775 0.0
2.2222222222222223E-4 0.005888888888888889 0.0
2.2222222222222223E-4 0.006 0.0
2.2222222222222223E-4 0.01711111111111111 0.0
2.2222222222222223E-4 0.028222222222222225 0.0
2.2222222222222223E-4 0.03933333333333333 0.0
2.2222222222222223E-4 0.050444444444444445 0.0
2.2222222222222223E-4 0.06155555555555556 0.0
2.2222222222222223E-4 0.07266666666666667 0.0
2.2222222222222223E-4 0.08377777777777778 0.0
2.2222222222222223E-4 0.0948888888888889 0.0
2.2222222222222223E-4 0.10600000000000001 0.0
2.2222222222222223E-4 0.10611111111111113 0.0
2.2222222222222223E-4 0.10622222222222223 0.0
2.2222222222222223E-4 0.10633333333333335 0.0
2.2222222222222223E-4 0.10644444444444445 0.0
2.2222222222222223E-4 0.10655555555555557 0.0
2.2222222222222223E-4 0.10666666666666667 0.0
2.2222222222222223E-4 0.10677777777777779 0.0
2.2222222222222223E-4 0.1068888888888889 0.0
2.2222222222222223E-4 0.10700000000000001 0.0
3.333333333333334E-4 0.0 0.0
3.333333333333334E-4 3.846153846153846E-4 0.0
3.333333333333334E-4 7.692307692307692E-4 0.0
3.333333333333334E-4 0.0011538461538461537 0.0
3.333333333333334E-4 0.0015384615384615385 0.0
3.333333333333334E-4 0.0019230769230769232 0.0
3.333333333333334E-4 0.0023076923076923075 0.0
3.333333333333334E-4 0.002692307692307692 0.0
3.333333333333334E-4 0.003076923076923077 0.0
3.333333333333334E-4 0.0034615384615384616 0.0
3.333333333333334E-4 0.0038461538461538464 0.0
3.333333333333334E-4 0.004230769230769231 0.0
3.333333333333334E-4 0.004615384615384615 0.0
3.333333333333334E-4 0.005 0.0
3.333333333333334E-4 0.005111111111111111 0.0
3.333333333333334E-4 0.005222222222222223 0.0
3.333333333333334E-4 0.005333333333333333 0.0
3.333333333333334E-4 0.0054444444444444445 0.0
3.333333333333334E-4 0.005555555555555556 0.0
3.333333333333334E-4 0.005666666666666667 0.0
3.333333333333334E-4 0.0057777777777777775 0.0
3.333333333333334E-4 0.005888888888888889 0.0
3.333333333333334E-4 0.006 0.0
3.333333333333334E-4 0.01711111111111111 0.0
3.333333333333334E-4 0.028222222222222225 0.0
3.333333333333334E-4 0.03933333333333333 0.0
3.333333333333334E-4 0.050444444444444445 0.0
3.333333333333334E-4 0.06155555555555556 0.0
3.333333333333334E-4 0.07266666666666667 0.0
3.333333333333334E-4 0.08377777777777778 0.0
3.333333333333334E-4 0.0948888888888889 0.0
3.333333333333334E-4 0.10600000000000001 0.0
3.333333333333334E-4 0.10611111111111113 0.0
3.333333333333334E-4 0.10622222222222223 0.0
3.333333333333334E-4 0.10633333333333335 0.0
3.333333333333334E-4 0.10644444444444445 0.0
3.333333333333334E-4 0.10655555555555557 0.0
3.333333333333334E-4 0.10666666666666667 0.0
3.333333333333334E-4 0.10677777777777779 0.0
3.333333333333334E-4 0.1068888888888889 0.0
3.333333333333334E-4 0.10700000000000001 0.0
4.4444444444444447E-4 0.0 0.0
4.4444444444444447E-4 3.846153846153846E-4 0.0
4.4444444444444447E-4 7.692307692307692E-4 0.0
4.4444444444444447E-4 0.0011538461538461537 0.0
4.4444444444444447E-4 0.0015384615384615385 0.0
4.4444444444444447E-4 0.0019230769230769232 0.0
4.4444444444444447E-4 0.0023076923076923075 0.0
4.4444444444444447E-4 0.002692307692307692 0.0
4.4444444444444447E-4 0.003076923076923077 0.0
4.4444444444444447E-4 0.0034615384615384616 0.0
4.4444444444444447E-4 0.0038461538461538464 0.0
4.4444444444444447E-4 0.004230769230769231 0.0
4.4444444444444447E-4 0.004615384615384615 0.0
4.4444444444444447E-4 0.005 0.0
4.4444444444444447E-4 0.005111111111111111 0.0
4.4444444444444447E-4 0.005222222222222223 0.0
4.4444444444444447E-4 0.005333333333333333 0.0
4.4444444444444447E-4 0.0054444444444444445 0.0
4.4444444444444447E-4 0.005555555555555556 0.0
4.4444444444444447E-4 0.005666666666666667 0.0
4.4444444444444447E-4 0.0057777777777777775 0.0
4.4444444444444447E-4 0.005888888888888889 0.0
4.4444444444444447E-4 0.006 0.0
4.4444444444444447E-4 0.01711111111111111 0.0
4.4444444444444447E-4 0.028222222222222225 0.0
4.4444444444444447E-4 0.03933333333333333 0.0
4.4444444444444447E-4 0.050444444444444445 0.0
4.4444444444444447E-4 0.06155555555555556 0.0
4.4444444444444447E-4 0.07266666666666667 0.0
4.4444444444444447E-4 0.08377777777777778 0.0
4.4444444444444447E-4 0.0948888888888889 0.0
4.4444444444444447E-4 0.10600000000000001 0.0
4.4444444444444447E-4 0.10611111111111113 0.0
4.4444444444444447E-4 0.10622222222222223 0.0
4.4444444444444447E-4 0.10633333333333335 0.0
4.4444444444444447E-4 0.10644444444444445 0.0
4.4444444444444447E-4 0.10655555555555557 0.0
4.4444444444444447E-4 0.10666666666666667 0.0
4.4444444444444447E-4 0.10677777777777779 0.0
4.4444444444444447E-4 0.1068888888888889 0.0
4.4444444444444447E-4 0.10700000000000001 0.0
5.555555555555556E-4 0.0 0.0
5.555555555555556E-4 3.846153846153846E-4 0.0
5.555555555555556E-4 7.692307692307692E-4 0.0
5.555555555555556E-4 0.0011538461538461537 0.0
5.555555555555556E-4 0.0015384615384615385 0.0
5.555555555555556E-4 0.0019230769230769232 0.0
5.555555555555556E-4 0.0023076923076923075 0.0
5.555555555555556E-4 0.002692307692307692 0.0
5.555555555555556E-4 0.003076923076923077 0.0
5.555555555555556E-4 0.0034615384615384616 0.0
5.555555555555556E-4 0.0038461538461538464 0.0
5.555555555555556E-4 0.004230769230769231 0.0
5.555555555555556E-4 0.004615384615384615 0.0
5.555555555555556E-4 0.005 0.0
5.555555555555556E-4 0.005111111111111111 0.0
5.555555555555556E-4 0.005222222222222223 0.0
5.555555555555556E-4 0.005333333333333333 0.0
5.555555555555556E-4 0.0054444444444444445 0.0
5.555555555555556E-4 0.005555555555555556 0.0
5.555555555555556E-4 0.005666666666666667 0.0
5.555555555555556E-4 0.0057777777777777775 0.0
5.555555555555556E-4 0.005888888888888889 0.0
5.555555555555556E-4 0.006 0.0
5.555555555555556E-4 0.01711111111111111 0.0
5.555555555555556E-4 0.028222222222222225 0.0
5.555555555555556E-4 0.03933333333333333 0.0
5.555555555555556E-4 0.050444444444444445 0.0
5.555555555555556E-4 0.06155555555555556 0.0
[...]
POINT_DATA 1353
SCALARS Temperatura float 1
LOOKUP_TABLE default
134.00898341221955
133.88283863583192
133.75491304316463
133.62516401287542
133.49353701505592
133.3599560831521
133.2243156865775
133.0864658204677
132.94618568347482
132.80312330653547
132.6567153102909
132.50582535660746
132.348868372832
132.17716397961536
131.99205430549276
131.81866277892706
131.6483815302632
131.479642761324
131.3114096456545
131.1429372684994
130.97359933595686
130.80282991080844
130.63009776872474
111.23113171836359
111.03461038288218
111.06818646091618
111.05986644550006
111.06218767147841
111.06048574729985
111.06564723778128
111.03812650304498
108.90353210089572
108.88459287333086
108.8658807840403
108.84735000100245
108.82895743139379
108.81066455766201
108.79243876970136
108.77425421069685
108.75609223573414
108.7379416145584
134.01585811656608
133.88970806988297
133.76177638013303
133.63202188605007
133.50039015997405
133.36680559681486
133.23116313753897
133.09331415742628
132.95303853256164
132.80999439176225
132.6636003758776
132.51285700080302
132.3556839326326
132.18655112071733
132.01242189142405
131.84014629920983
131.6705732118567
131.50225741273263
131.33434477687192
131.16614303525438
130.99705000785468
130.82651000360136
130.65399555377488
111.24795413527517
111.05374492136139
111.08672024278117
111.07855794047568
111.08083394060803
111.07915942773634
111.08425338785592
111.05698542798399
108.92161108096593
108.90269156241901
108.88399894320278
108.86548622275487
108.84710936504621
108.82882918385351
108.81061265913885
108.79243372396058
108.77427364969772
108.75612118434672
134.0229108176433
133.89675869197302
133.76882413139762
133.63906862601033
133.5074383804391
133.37385874078728
133.2382263282679
133.10039555435566
132.960152814934
132.81716723427172
132.67088487142058
132.5203641482697
132.3635696664678
132.19738434262214
132.02817412832152
131.8594531761674
131.69166435708726
131.5245923572319
131.35766563626953
131.1903250725068
131.02202751513371
130.85224290185062
130.68045202094527
111.26110377796724
111.07391722846191
111.10507432052313
111.09738933035857
111.09952843018432
111.09793700485294
111.10282600716963
111.07632824210602
108.93948563125083
108.92063431896335
108.90200897019251
108.88355897275731
108.86523743092204
108.84700319343702
108.8288220939438
108.81066752729693
108.79252058989071
108.7743700123887
134.03014251841248
133.90399036585214
133.77605615285958
133.64630403026396
133.5146813961765
133.38111512876534
133.2455045488095
133.10770914913186
132.9675255172419
132.8246415018366
132.6785484587765
132.52836779503525
132.37239957541647
132.20890115645568
132.04321261550672
131.87753745286534
131.71211047334734
131.54685948870556
131.38147851471234
131.21553944680733
131.0485666648652
130.8800580107629
130.7094984663189
111.27056859966257
111.09513208034906
111.12324703151707
111.11636119966731
111.11827092197206
111.11681872333466
111.12136459654303
111.09615620050384
108.95715266371572
108.93842223828632
108.91991570765836
108.90157599801229
108.88335130363453
108.86519732428972
108.8470782602059
108.82896691002631
108.81084431921174
108.79269933680867
134.03755367400075
133.91140299301466
133.78347217579253
133.65372775622401
133.52211874454358
133.38857408864396
133.25299674051823
133.11525311166972
132.9751532149457
132.83241152847486
132.6865740615772
132.53686436462226
132.38197869266364
132.22093497912954
132.05821042826364
131.89532031434516
131.73236918074292
131.56930250903167
131.40590793124235
131.24185072852177
131.0767085681374
130.90999613787184
130.7411868805432
111.2763289627992
111.11739731670819
111.14123562182128
111.13547450637024
111.13706104376736
111.13580498075895
111.13986831557989
111.11647137540885
108.9746068911895
108.95605772359083
108.9377282876169
108.91955139658543
108.90146811661724
108.88343015564719
108.86540015644725
108.84735079438525
108.82926356981348
108.81112780104674
134.04514440139528
133.91899639768664
133.79107182684047
133.66133932093777
133.52974978284226
133.3962346959268
133.26070145738692
133.123024925211
132.98303149620912
132.84046837034703
132.6949454055197
132.54582084140227
132.39215745455937
132.23341380145825
132.0734047444234
131.9131734404779
131.7527592583975
131.59210558980936
131.43104471946415
131.26929754160156
131.10647753593065
130.94209758036246
130.77559050569943
111.27835747202727
111.14072389233202
111.15903622970184
111.15473058760783
111.15589826601472
111.15489633414555
111.15833596105969
111.13727673356587
108.99184054568437
108.9735456320134
108.95546215176702
108.93750773955479
108.9196141119426
108.90172910507808
108.88381502642744
108.8658457925124
108.84780439475811
108.82968124115386
134.05291457858218
133.92677028677483
133.7988546265855
133.66913810554036
133.53757369717064
133.40409579436815
133.26861689495504
133.13102151725082
132.99115485077024
132.8488012866862
132.70364318356758
132.55519120592552
132.40282351756022
132.2462829946792
132.08887122606313
131.9312458732435
131.7734216047048
131.61535066591873
131.45690396568875
131.29785394723027
131.13784806753173
130.97638285564514
130.81280524033357
111.27661857276148
111.16512599425603
111.17664385050607
111.17413117103352
111.17478189581314
111.1740935108127
111.17676593122124
111.15857626466197
109.00884290941595
108.99089578466644
108.9731431321271
108.95547984592297
108.93782715998638
108.92013162047357
108.90235869547801
108.88448605163404
108.86649976893541
108.8483922135619
134.06086389555335
133.93472423869733
133.8068199850978
133.6771233605006
133.5455895140065
133.41215601782386
133.27674094278217
133.13923933850768
132.99951687868622
132.85739821303946
132.71264471463516
132.56492555576693
132.41388813878856
132.25948704577533
132.10461001481863
131.94956701918636
131.79437481049925
131.63901132017864
131.48339920670378
131.32738389140286
131.17069181573504
131.0128145486787
130.8529527379946
111.27106768833224
111.19062128539348
111.19405226647054
111.19367839635231
111.19371106645875
111.19339742635994
111.19515616655049
111.18037519540448
109.02559953001416
109.00812907035431
108.9908157161091
108.97352148566273
108.95615959823576
108.93868605986792
108.92107545219942
108.90331265928013
108.88538878493434
108.86729913245
134.06899188348243
133.94285770331064
133.8149671992612
133.68529421111361
133.5537961132084
133.42041381669998
133.2850712404097
133.14767445948908
133.00811054523865
132.86624606335994
132.72192490863728
132.5749740634146
132.42527657858292
132.2729662449515
132.12057894728056
131.9680959159358
131.81555291927947
131.66296833385667
131.5103342334119
131.35760248534075
131.20465261023318
131.0512113322302
130.89618695440421
111.26164942448153
111.2172314012386
111.2112539073785
111.21337485656206
111.21268471866429
111.21280921566166
111.21350404745793
111.20268036159915
109.04209085093638
109.02528986148576
109.00856722794835
108.99171173063633
108.97467984422227
108.95745136862715
108.9400170284118
108.92237238117356
108.90451531692551
108.88644491848231
134.0772979336142
133.95117000603202
133.8232954524123
133.69364966325853
133.562192242135
133.42886748728816
133.2936052357316
133.15632268504976
133.01692842724987
132.87533110561273
132.7314574424882
132.58528832512923
132.43692223315938
132.28665763437493
132.1367121809441
131.98675069365896
131.83683592550358
131.68703453146057
131.53741893239402
131.38807038731676
131.2390840399672
131.09057762904294
114.98878601955339
114.98878601955339
114.98878601955339
114.98878601955339
114.98878601955339
114.98878601955339
114.98878601955339
114.98878601955339
114.98878601955339
114.98878601955339
109.0425903357187
109.02653615617565
109.01015591830101
108.99347031042834
108.97649465452601
108.95924033347005
108.94171560962904
108.92392611443773
108.90587514261517
135.27453812738554
135.1503494650562
135.0278148032117
134.90695511523148
134.78780522691008
134.6704139835365
134.55484443805872
134.44117389526173
134.32949347804708
134.21990655889155
134.11252475621424
134.0074591045535
133.90480378267387
133.80461442666595
133.70652762307887
133.60868394358428
133.5110797912588
133.41371059966698
133.3165703208292
133.2196505876616
133.1229393446935
133.02641849279925
114.98878601955339
114.98878601955339
114.98878601955339
114.98878601955339
114.98878601955339
114.98878601955339
114.98878601955339
114.98878601955339
114.98878601955339
114.98878601955339
111.27494925550566
111.25226351867687
111.23013419988658
111.2085538528644
111.1875167580756
111.16701853462754
111.14705591666214
111.12762661903314
111.10872925630005
136.05520413300374
135.93071817468768
135.80696023487118
135.683922354965
135.56159104514424
135.4399470897659
135.31896528510902
135.19861415161063
135.0788557081743
134.95964548411942
134.84093312070624
134.72266421539558
134.60478413931628
134.4872433380946
134.3707698260347
134.25435796816572
134.13800509491364
134.02170875295892
133.9054668418485
133.789277838266
133.6731411634719
133.55705781606508
114.98878601955339
114.98878601955339
114.98878601955339
114.98878601955339
114.98878601955339
114.98878601955339
114.98878601955339
114.98878601955339
114.98878601955339
114.98878601955339
111.3035904770166
111.28528597632105
111.26693034570555
111.24852643946386
111.23007650977837
111.21158231284733
111.19304517045263
111.17446600719029
111.15584537304352
136.46931957984035
136.34486761797191
136.2210444230567
136.09785233594747
135.9752952384505
135.85337865582173
135.73210989897836
135.611498236531
135.4915550747984
135.37229410028456
135.25373129106023
135.13588462067034
135.0187732531424
134.90241634845282
134.78736481205155
134.67241896346445
134.55758023294447
134.44285000762574
134.32822959607867
134.21372016927657
134.09932266302883
133.985037609034
114.98878601955339
114.98878601955339
114.98878601955339
114.98878601955339
114.98878601955339
114.98878601955339
114.98878601955339
114.98878601955339
114.98878601955339
114.98878601955339
111.3034018320237
111.28398791955597
111.26467940239866
111.24547527386208
111.22637472447633
111.20737711276493
111.18848194812892
111.16968888040289
111.15099769347704
136.70240035547454
136.57794620144807
136.45401939879542
136.33061933698693
136.20774489876118
136.08539441825403
135.96356562208163
135.84225555538274
135.72146049787656
135.60117588127235
135.4813962323465
135.36211518865613
135.2433256416243
135.125019977323
135.0078785715467
134.890816011527
134.77383163498376
134.6569247853246
134.54009482058623
134.42334112871976
134.3066631532436
134.1900604380995
114.98878601955339
114.98878601955339
114.98878601955339
114.98878601955339
114.98878601955339
114.98878601955339
114.98878601955339
114.98878601955339
114.98878601955339
114.98878601955339
111.30340371663083
111.284279640318
111.26521936000137
111.24622318549063
111.22729136416345
111.20842408906682
111.1896215037165
111.1708837050568
111.15221074528357
136.82716221456494
136.70270648234427
136.57872379730668
136.45521436626618
136.33217847881596
136.20961652252436
136.0875290045469
135.96591657937114
135.84478008165775
135.7241205615016
135.60393931594928
135.48423790442627
135.3650181333904
135.2462820178648
135.1287171601212
135.01123285805204
134.89382931005292
134.7765067143097
134.6592652666134
134.5421051564628
134.42502656036802
134.30802962996682
114.98878601955339
114.98878601955339
114.98878601955339
114.98878601955339
114.98878601955339
114.98878601955339
114.98878601955339
114.98878601955339
114.98878601955339
114.98878601955339
111.30343022925337
111.2842301875394
111.26510503273636
111.24605464745194
111.2270789336127
111.20817781019412
111.18935121185856
111.17059908810471
111.15192140273898
136.88822246731593
136.76376709105696
136.63976024837547
136.5162019571687
136.39309218215217
136.27043082943348
136.14821773871864
136.02645267312613
135.90513530676776
135.7842652106969
135.66384183880493
135.54386451702482
135.42433243992605
135.3052446725076
135.18730840261762
135.0694488637525
134.95166596653067
134.8339596207692
134.7163297360195
134.59877622259282
134.48129899338718
134.36389796720064
114.98878601955339
114.98878601955339
114.98878601955339
114.98878601955339
114.98878601955339
114.98878601955339
114.98878601955339
114.98878601955339
114.98878601955339
114.98878601955339
111.30341690558947
111.28423714627567
111.26512926023906
111.24609326710744
111.22712918013475
111.20823700688231
111.18941674963395
111.17066840565876
111.15199196737629
136.90645714938762
136.78200145826642
136.6579861756369
136.53441137949412
136.4112771413613
136.28858352942035
136.166330613043
136.0445184687812
135.92314718780042
135.80221688453176
135.68172770583843
135.56167983910416
135.4420735172705
135.3229090219543
135.20489579195925
135.0869593298998
134.96909967333252
134.8513168601996
134.7336109286022
134.61598191632945
134.49842985998555
134.38095479337298
114.98878601955339
114.98878601955339
114.98878601955339
114.98878601955339
114.98878601955339
114.98878601955339
114.98878601955339
114.98878601955339
114.98878601955339
114.98878601955339
111.30342297082386
111.28423658883277
111.26512308302418
111.24608242000137
111.22711456979175
111.20821950549214
111.18939720305005
111.17064764112388
111.1519708009944
136.88822246731561
136.7637670910566
136.639760248375
136.51620195716814
136.39309218215132
136.27043082943229
136.14821773871716
136.0264526731245
135.90513530676597
135.78426521069483
135.66384183880248
135.54386451702194
135.42433243992272
135.3052446725038
135.18730840261333
135.06944886374777
134.95166596652558
134.83395962076375
134.71632973601373
134.59877622258685
134.48129899338113
134.36389796719448
114.98878601955339
114.98878601955339
114.98878601955339
114.98878601955339
114.98878601955339
114.98878601955339
114.98878601955339
114.98878601955339
114.98878601955339
114.98878601955339
111.30341690557856
111.28423714626476
111.26512926022815
111.24609326709653
111.22712918012381
111.20823700687131
111.18941674962291
111.17066840564772
111.15199196736523
136.82716221457105
136.70270648235038
136.57872379731285
136.45521436627243
136.33217847882233
136.2096165225309
136.08752900455346
135.96591657937765
135.8447800816642
135.72412056150804
135.60393931595587
135.484237904433
135.36501813339734
135.246282017872
135.1287171601287
135.01123285805977
134.89382931006082
134.77650671431792
134.65926526662176
134.54210515647128
134.42502656037647
134.30802962997524
114.98878601955339
114.98878601955339
114.98878601955339
114.98878601955339
114.98878601955339
114.98878601955339
114.98878601955339
114.98878601955339
114.98878601955339
114.98878601955339
111.30343022921986
111.28423018750574
111.26510503270252
111.24605464741792
111.22707893357847
111.20817781015974
111.18935121182409
111.17059908807018
111.15192140270445
136.70240035548446
136.57794620145802
136.4540193988055
136.3306193369971
136.2077448987713
136.08539441826395
135.9635656220915
135.84225555539254
135.72146049788623
135.60117588128173
135.48139623235548
135.36211518866463
135.24332564163228
135.12501997733048
135.0078785715537
134.89081601153364
134.7738316349902
134.65692478533083
134.54009482059232
134.4233411287257
134.3066631532495
134.19006043810535
114.98878601955339
114.98878601955339
114.98878601955339
114.98878601955339
114.98878601955339
114.98878601955339
114.98878601955339
114.98878601955339
114.98878601955339
114.98878601955339
111.30340371662844
111.28427964031563
111.26521935999901
111.24622318548833
111.2272913641612
111.2084240890647
111.18962150371439
111.17088370505468
111.15221074528144
136.46931957986345
136.34486761799496
136.2210444230797
136.0978523359704
135.9752952384734
135.85337865584458
135.7321098990011
135.61149823655367
135.49155507482112
135.37229410030736
135.25373129108308
135.13588462069325
135.01877325316536
134.90241634847578
134.78736481207451
134.67241896348744
134.55758023296733
134.44285000764833
134.32822959610112
134.21372016929888
134.09932266305086
133.9850376090558
114.98878601955339
114.98878601955339
114.98878601955339
114.98878601955339
114.98878601955339
114.98878601955339
114.98878601955339
114.98878601955339
114.98878601955339
114.98878601955339
111.30340183201845
111.28398791955068
111.26467940239331
111.24547527385674
111.22637472447097
111.20737711275953
111.18848194812354
111.16968888039752
111.15099769347168
136.05520413303248
135.93071817471642
135.80696023490006
135.68392235499402
135.56159104517346
135.43994708979525
135.31896528513857
135.19861415164033
135.07885570820412
134.95964548414932
134.84093312073625
134.7226642154258
134.60478413934672
134.48724333812532
134.3707698260657
134.254357968197
134.1380050949452
134.02170875299083
133.9054668418806
133.78927783829832
133.67314116350434
133.5570578160975
114.98878601955339
114.98878601955339
114.98878601955339
114.98878601955339
114.98878601955339
114.98878601955339
114.98878601955339
114.98878601955339
114.98878601955339
114.98878601955339
111.3035904769946
111.2852859762989
111.26693034568328
111.24852643944149
111.23007650975596
111.21158231282493
111.19304517043027
111.174466007168
111.15584537302124
135.27453812739284
135.15034946506353
135.02781480321903
134.90695511523884
134.7878052269174
134.67041398354377
134.55484443806589
134.4411738952688
134.32949347805413
134.2199065588986
134.11252475622132
134.00745910456058
133.90480378268091
133.80461442667294
133.7065276230858
133.60868394359116
133.5110797912656
133.41371059967355
133.31657032083572
133.219650587668
133.12293934469974
133.0264184928054
114.98878601955339
114.98878601955339
114.98878601955339
114.98878601955339
114.98878601955339
114.98878601955339
114.98878601955339
114.98878601955339
114.98878601955339
114.98878601955339
111.27494925550748
111.2522635186787
111.23013419988841
111.20855385286623
111.18751675807738
111.16701853462922
111.1470559166637
111.12762661903461
111.1087292563015
134.0772979336149
133.9511700060327
133.8232954524129
133.693649663259
133.56219224213547
133.4288674872887
133.29360523573234
133.1563226850506
133.01692842725086
132.87533110561384
132.73145744248941
132.5852883251306
132.43692223316086
132.28665763437647
132.13671218094572
131.98675069366075
131.8368359255055
131.68703453146273
131.53741893239624
131.38807038731906
131.23908403996955
131.0905776290454
114.98878601955339
114.98878601955339
114.98878601955339
114.98878601955339
114.98878601955339
114.98878601955339
114.98878601955339
114.98878601955339
114.98878601955339
114.98878601955339
109.04259033570197
109.02653615615903
109.01015591828451
108.99347031041191
108.97649465450966
108.95924033345379
108.94171560961291
108.92392611442166
108.90587514259911
134.06899188348316
133.9428577033113
133.81496719926182
133.6852942111141
133.55379611320885
133.42041381670057
133.2850712404105
133.14767445949002
133.00811054523967
132.86624606336122
132.72192490863844
132.57497406341622
132.4252765785846
132.27296624495315
132.12057894728235
131.9680959159376
131.8155529192813
131.6629683338587
131.51033423341408
131.35760248534294
131.20465261023543
131.05121133223258
130.89618695440657
111.26164942449478
111.21723140128552
111.2112539073962
111.21337485657838
111.21268471872929
111.21280921567694
111.21350404745554
111.202680361602
109.04209085091956
109.02528986146896
109.00856722793155
108.99171173061967
108.97467984420572
108.95745136861062
108.9400170283953
108.9223723811572
108.90451531690918
108.886444918466
134.06086389555423
133.93472423869804
133.80681998509846
133.677123360501
133.545589514007
133.4121560178245
133.27674094278296
133.13923933850867
132.99951687868736
132.85739821304077
132.71264471463635
132.56492555576858
132.4138881387904
132.2594870457771
132.10461001482042
131.9495670191882
131.79437481050113
131.63901132018063
131.4833992067058
131.32738389140493
131.1706918157372
131.01281454868092
130.8529527379969
111.27106768834554
111.19062128544066
111.1940522664882
111.1936783963688
111.19371106652405
111.19339742637521
111.19515616654807
111.18037519540721
109.02559952999721
109.00812907033733
108.99081571609223
108.97352148564592
108.95615959821905
108.93868605985126