# vtk DataFile Version 2.0
Niestacjonarne zagadnienie cieplne - ogrzewanie wody w garnku stalowym
ASCII
DATASET UNSTRUCTURED_GRID
POINTS 1353 float
0.0 0.0 0.0
0.0 3.846153846153846E-4 0.0
0.0 7.692307692307692E-4 0.0
0.0 0.0011538461538461537 0.0
0.0 0.0015384615384615385 0.0
0.0 0.0019230769230769232 0.0
0.0 0.0023076923076923075 0.0
0.0 0.002692307692307692 0.0
0.0 0.003076923076923077 0.0
0.0 0.0034615384615384616 0.0
0.0 0.0038461538461538464 0.0
0.0 0.004230769230769231 0.0
0.0 0.004615384615384615 0.0
0.0 0.005 0.0
0.0 0.005111111111111111 0.0
0.0 0.005222222222222223 0.0
0.0 0.005333333333333333 0.0
0.0 0.0054444444444444445 0.0
0.0 0.005555555555555556 0.0
0.0 0.005666666666666667 0.0
0.0 0.0057777777777777775 0.0
0.0 0.005888888888888889 0.0
0.0 0.006 0.0
0.0 0.01711111111111111 0.0
0.0 0.028222222222222225 0.0
0.0 0.03933333333333333 0.0
0.0 0.050444444444444445 0.0
0.0 0.06155555555555556 0.0
0.0 0.07266666666666667 0.0
0.0 0.08377777777777778 0.0
0.0 0.0948888888888889 0.0
0.0 0.10600000000000001 0.0
0.0 0.10611111111111113 0.0
0.0 0.10622222222222223 0.0
0.0 0.10633333333333335 0.0
0.0 0.10644444444444445 0.0
0.0 0.10655555555555557 0.0
0.0 0.10666666666666667 0.0
0.0 0.10677777777777779 0.0
0.0 0.1068888888888889 0.0
0.0 0.10700000000000001 0.0
1.1111111111111112E-4 0.0 0.0
1.1111111111111112E-4 3.846153846153846E-4 0.0
1.1111111111111112E-4 7.692307692307692E-4 0.0
1.1111111111111112E-4 0.0011538461538461537 0.0
1.1111111111111112E-4 0.0015384615384615385 0.0
1.1111111111111112E-4 0.0019230769230769232 0.0
1.1111111111111112E-4 0.0023076923076923075 0.0
1.1111111111111112E-4 0.002692307692307692 0.0
1.1111111111111112E-4 0.003076923076923077 0.0
1.1111111111111112E-4 0.0034615384615384616 0.0
1.1111111111111112E-4 0.0038461538461538464 0.0
1.1111111111111112E-4 0.004230769230769231 0.0
1.1111111111111112E-4 0.004615384615384615 0.0
1.1111111111111112E-4 0.005 0.0
1.1111111111111112E-4 0.005111111111111111 0.0
1.1111111111111112E-4 0.005222222222222223 0.0
1.1111111111111112E-4 0.005333333333333333 0.0
1.1111111111111112E-4 0.0054444444444444445 0.0
1.1111111111111112E-4 0.005555555555555556 0.0
1.1111111111111112E-4 0.005666666666666667 0.0
1.1111111111111112E-4 0.0057777777777777775 0.0
1.1111111111111112E-4 0.005888888888888889 0.0
1.1111111111111112E-4 0.006 0.0
1.1111111111111112E-4 0.01711111111111111 0.0
1.1111111111111112E-4 0.028222222222222225 0.0
1.1111111111111112E-4 0.03933333333333333 0.0
1.1111111111111112E-4 0.050444444444444445 0.0
1.1111111111111112E-4 0.06155555555555556 0.0
1.1111111111111112E-4 0.07266666666666667 0.0
1.1111111111111112E-4 0.08377777777777778 0.0
1.1111111111111112E-4 0.0948888888888889 0.0
1.1111111111111112E-4 0.10600000000000001 0.0
1.1111111111111112E-4 0.10611111111111113 0.0
1.1111111111111112E-4 0.10622222222222223 0.0
1.1111111111111112E-4 0.10633333333333335 0.0
1.1111111111111112E-4 0.10644444444444445 0.0
1.1111111111111112E-4 0.10655555555555557 0.0
1.1111111111111112E-4 0.10666666666666667 0.0
1.1111111111111112E-4 0.10677777777777779 0.0
1.1111111111111112E-4 0.1068888888888889 0.0
1.1111111111111112E-4 0.10700000000000001 0.0
2.2222222222222223E-4 0.0 0.0
2.2222222222222223E-4 3.846153846153846E-4 0.0
2.2222222222222223E-4 7.692307692307692E-4 0.0
2.2222222222222223E-4 0.0011538461538461537 0.0
2.2222222222222223E-4 0.0015384615384615385 0.0
2.2222222222222223E-4 0.0019230769230769232 0.0
2.2222222222222223E-4 0.0023076923076923075 0.0
2.2222222222222223E-4 0.002692307692307692 0.0
2.2222222222222223E-4 0.003076923076923077 0.0
2.2222222222222223E-4 0.0034615384615384616 0.0
2.2222222222222223E-4 0.0038461538461538464 0.0
2.2222222222222223E-4 0.004230769230769231 0.0
2.2222222222222223E-4 0.004615384615384615 0.0
2.2222222222222223E-4 0.005 0.0
2.2222222222222223E-4 0.005111111111111111 0.0
2.2222222222222223E-4 0.005222222222222223 0.0
2.2222222222222223E-4 0.005333333333333333 0.0
2.2222222222222223E-4 0.0054444444444444445 0.0
2.2222222222222223E-4 0.005555555555555556 0.0
2.2222222222222223E-4 0.005666666666666667 0.0
2.2222222222222223E-4 0.0057777777777777775 0.0
2.2222222222222223E-4 0.005888888888888889 0.0
2.2222222222222223E-4 0.006 0.0
2.2222222222222223E-4 0.01711111111111111 0.0
2.2222222222222223E-4 0.028222222222222225 0.0
2.2222222222222223E-4 0.03933333333333333 0.0
2.2222222222222223E-4 0.050444444444444445 0.0
2.2222222222222223E-4 0.06155555555555556 0.0
2.2222222222222223E-4 0.07266666666666667 0.0
2.2222222222222223E-4 0.08377777777777778 0.0
2.2222222222222223E-4 0.0948888888888889 0.0
2.2222222222222223E-4 0.10600000000000001 0.0
2.2222222222222223E-4 0.10611111111111113 0.0
2.2222222222222223E-4 0.10622222222222223 0.0
2.2222222222222223E-4 0.10633333333333335 0.0
2.2222222222222223E-4 0.10644444444444445 0.0
2.2222222222222223E-4 0.10655555555555557 0.0
2.2222222222222223E-4 0.10666666666666667 0.0
2.2222222222222223E-4 0.10677777777777779 0.0
2.2222222222222223E-4 0.1068888888888889 0.0
2.2222222222222223E-4 0.10700000000000001 0.0
3.333333333333334E-4 0.0 0.0
3.333333333333334E-4 3.846153846153846E-4 0.0
3.333333333333334E-4 7.692307692307692E-4 0.0
3.333333333333334E-4 0.0011538461538461537 0.0
3.333333333333334E-4 0.0015384615384615385 0.0
3.333333333333334E-4 0.0019230769230769232 0.0
3.333333333333334E-4 0.0023076923076923075 0.0
3.333333333333334E-4 0.002692307692307692 0.0
3.333333333333334E-4 0.003076923076923077 0.0
3.333333333333334E-4 0.0034615384615384616 0.0
3.333333333333334E-4 0.0038461538461538464 0.0
3.333333333333334E-4 0.004230769230769231 0.0
3.333333333333334E-4 0.004615384615384615 0.0
3.333333333333334E-4 0.005 0.0
3.333333333333334E-4 0.005111111111111111 0.0
3.333333333333334E-4 0.005222222222222223 0.0
3.333333333333334E-4 0.005333333333333333 0.0
3.333333333333334E-4 0.0054444444444444445 0.0
3.333333333333334E-4 0.005555555555555556 0.0
3.333333333333334E-4 0.005666666666666667 0.0
3.333333333333334E-4 0.0057777777777777775 0.0
3.333333333333334E-4 0.005888888888888889 0.0
3.333333333333334E-4 0.006 0.0
3.333333333333334E-4 0.01711111111111111 0.0
3.333333333333334E-4 0.028222222222222225 0.0
3.333333333333334E-4 0.03933333333333333 0.0
3.333333333333334E-4 0.050444444444444445 0.0
3.333333333333334E-4 0.06155555555555556 0.0
3.333333333333334E-4 0.07266666666666667 0.0
3.333333333333334E-4 0.08377777777777778 0.0
3.333333333333334E-4 0.0948888888888889 0.0
3.333333333333334E-4 0.10600000000000001 0.0
3.333333333333334E-4 0.10611111111111113 0.0
3.333333333333334E-4 0.10622222222222223 0.0
3.333333333333334E-4 0.10633333333333335 0.0
3.333333333333334E-4 0.10644444444444445 0.0
3.333333333333334E-4 0.10655555555555557 0.0
3.333333333333334E-4 0.10666666666666667 0.0
3.333333333333334E-4 0.10677777777777779 0.0
3.333333333333334E-4 0.1068888888888889 0.0
3.333333333333334E-4 0.10700000000000001 0.0
4.4444444444444447E-4 0.0 0.0
4.4444444444444447E-4 3.846153846153846E-4 0.0
4.4444444444444447E-4 7.692307692307692E-4 0.0
4.4444444444444447E-4 0.0011538461538461537 0.0
4.4444444444444447E-4 0.0015384615384615385 0.0
4.4444444444444447E-4 0.0019230769230769232 0.0
4.4444444444444447E-4 0.0023076923076923075 0.0
4.4444444444444447E-4 0.002692307692307692 0.0
4.4444444444444447E-4 0.003076923076923077 0.0
4.4444444444444447E-4 0.0034615384615384616 0.0
4.4444444444444447E-4 0.0038461538461538464 0.0
4.4444444444444447E-4 0.004230769230769231 0.0
4.4444444444444447E-4 0.004615384615384615 0.0
4.4444444444444447E-4 0.005 0.0
4.4444444444444447E-4 0.005111111111111111 0.0
4.4444444444444447E-4 0.005222222222222223 0.0
4.4444444444444447E-4 0.005333333333333333 0.0
4.4444444444444447E-4 0.0054444444444444445 0.0
4.4444444444444447E-4 0.005555555555555556 0.0
4.4444444444444447E-4 0.005666666666666667 0.0
4.4444444444444447E-4 0.0057777777777777775 0.0
4.4444444444444447E-4 0.005888888888888889 0.0
4.4444444444444447E-4 0.006 0.0
4.4444444444444447E-4 0.01711111111111111 0.0
4.4444444444444447E-4 0.028222222222222225 0.0
4.4444444444444447E-4 0.03933333333333333 0.0
4.4444444444444447E-4 0.050444444444444445 0.0
4.4444444444444447E-4 0.06155555555555556 0.0
4.4444444444444447E-4 0.07266666666666667 0.0
4.4444444444444447E-4 0.08377777777777778 0.0
4.4444444444444447E-4 0.0948888888888889 0.0
4.4444444444444447E-4 0.10600000000000001 0.0
4.4444444444444447E-4 0.10611111111111113 0.0
4.4444444444444447E-4 0.10622222222222223 0.0
4.4444444444444447E-4 0.10633333333333335 0.0
4.4444444444444447E-4 0.10644444444444445 0.0
4.4444444444444447E-4 0.10655555555555557 0.0
4.4444444444444447E-4 0.10666666666666667 0.0
4.4444444444444447E-4 0.10677777777777779 0.0
4.4444444444444447E-4 0.1068888888888889 0.0
4.4444444444444447E-4 0.10700000000000001 0.0
5.555555555555556E-4 0.0 0.0
5.555555555555556E-4 3.846153846153846E-4 0.0
5.555555555555556E-4 7.692307692307692E-4 0.0
5.555555555555556E-4 0.0011538461538461537 0.0
5.555555555555556E-4 0.0015384615384615385 0.0
5.555555555555556E-4 0.0019230769230769232 0.0
5.555555555555556E-4 0.0023076923076923075 0.0
5.555555555555556E-4 0.002692307692307692 0.0
5.555555555555556E-4 0.003076923076923077 0.0
5.555555555555556E-4 0.0034615384615384616 0.0
5.555555555555556E-4 0.0038461538461538464 0.0
5.555555555555556E-4 0.004230769230769231 0.0
5.555555555555556E-4 0.004615384615384615 0.0
5.555555555555556E-4 0.005 0.0
5.555555555555556E-4 0.005111111111111111 0.0
5.555555555555556E-4 0.005222222222222223 0.0
5.555555555555556E-4 0.005333333333333333 0.0
5.555555555555556E-4 0.0054444444444444445 0.0
5.555555555555556E-4 0.005555555555555556 0.0
5.555555555555556E-4 0.005666666666666667 0.0
5.555555555555556E-4 0.0057777777777777775 0.0
5.555555555555556E-4 0.005888888888888889 0.0
5.555555555555556E-4 0.006 0.0
5.555555555555556E-4 0.01711111111111111 0.0
5.555555555555556E-4 0.028222222222222225 0.0
5.555555555555556E-4 0.03933333333333333 0.0
5.555555555555556E-4 0.050444444444444445 0.0
5.555555555555556E-4 0.06155555555555556 0.0
[...]
POINT_DATA 1353
SCALARS Temperatura float 1
LOOKUP_TABLE default
95.39978183845362
95.26588262571016
95.13060557190705
94.99391247791604
94.85575656758698
94.71607383201442
94.57477660988273
94.43174220155642
94.28679281747543
94.13965070322311
93.98987520321707
93.83660552477636
93.67860209802672
93.50981755810865
93.33187149684176
93.16141770056684
92.99273764163227
92.82472027907748
92.65659545653298
92.48777688878769
92.31774916331223
92.14603119219913
91.97216211623946
72.19065625602336
71.98594722757719
72.02109956833297
72.01244230779275
72.01473261477277
72.01349468128294
72.01662567848908
72.0005601764596
70.73920803044544
70.72821195520545
70.71736031563984
70.70662944472433
70.69599707622609
70.6854432997841
70.67495125399792
70.66450756654636
70.6541025928036
70.64373052129092
95.40434727268843
95.27044226781551
95.13515849873875
94.99845921083238
94.86029769874976
94.72061024288095
94.5793095496225
94.43627393067106
94.29132624281716
94.14419574233416
93.99443077302371
93.84126173331389
93.68312759532591
93.51604989149799
93.34532421182854
93.17562862844765
93.00744259722583
92.8397359512002
92.67185845936956
92.50325806777842
92.33343433314901
92.16191146879913
91.98822919202281
72.19946088426252
71.99712052436519
72.03165793654438
72.02316157116238
72.02540747218276
72.0241904329563
72.02727999896241
72.01136538950526
70.74954742166341
70.73856125962692
70.72771942638299
70.71699764718466
70.70637316516385
70.69582572205651
70.68533824315324
70.67489724680856
70.66449304487965
70.6541198146114
95.40906850560242
95.27516077979026
95.1398731614734
95.00317150192565
94.86500962886474
94.72532457968319
94.58403034319247
94.44100753953815
94.29608390138901
94.14899706469924
93.99931565232009
93.84631255422754
93.6884651225055
93.52339093064988
93.35598497557058
93.18872200185238
93.0218178723621
92.85505016250315
92.68795459616615
92.52006572790935
92.35091937498088
92.18005224487472
92.00700360442191
72.20452485446319
72.00937988754472
72.0420559652721
72.03404658201639
72.03615806782486
72.03500434116673
72.03796817670218
72.02251316362891
70.7598128211787
70.74886158933319
70.73805424110883
70.72736462340724
70.71676849166212
70.70624456506427
70.69577517230636
70.68534655170231
70.67494892418773
70.66457645812929
95.41394656744632
95.28003805366639
95.14474944793508
95.00804918776456
94.86989213368399
94.7302165347357
94.58893844623493
94.4459423376719
94.30106360290718
94.15405405941812
94.00451577015446
93.85177031845252
93.69452932746624
93.53133686736963
93.36640341555568
93.20131338493427
93.03615044553705
92.87078931729337
92.7049415686916
92.53822702366843
92.37022191265957
92.20047374055062
92.02851386006002
72.2058367714405
72.02272996176877
72.05229202637955
72.04509791740799
72.04698421376048
72.04593658086854
72.04868993233383
72.0340042090638
70.77000259342012
70.75911348399157
70.74836724845245
70.73773437312025
70.727188058712
70.71670538527955
70.70626783114713
70.69586132447019
70.68547606005477
70.67510626821806
95.4189819595122
95.28507403879414
95.14978714297675
95.01309199183478
94.87494484097587
94.73528557583634
94.59403303316351
94.45107691838692
94.30626274918716
94.15936237055249
94.01001872589076
93.85763033959842
93.70118800448209
93.53977072672447
93.37700824972592
93.21398974982127
93.0507199268664
92.88709070451287
92.72287881839493
92.5577657592694
92.3913579972668
92.22320300647654
92.05280750666459
72.20337803298952
72.03717837681309
72.06236341658833
72.05631652032363
72.05788558471882
72.0569874298297
72.05944478875583
72.04583968701813
70.78011393494347
70.7693181383084
70.75866314276676
70.74811417506415
70.73764072557084
70.7272177948239
70.7168260498135
70.70645135507125
70.69608414314884
70.68571888925344
95.42417486358768
95.29026862647663
95.15498594810249
95.01829952282073
94.88016723285796
94.74053096942639
94.5993129745532
94.45640934860063
94.31167796737309
94.16491526659824
94.01581221664442
93.8638678246195
93.70833709707371
93.54863413384598
93.38793706584676
93.22697024881379
93.06570485735172
92.90404030511675
92.74178999951678
92.57867547787798
92.41432289277327
92.24826379102858
92.07995198777898
72.19712258421536
72.05273581997389
72.07226633553748
72.0677037066494
72.06886171512515
72.06815727242686
72.07023205974909
72.05802124999822
70.79014272791832
70.7794779956272
70.76894987255928
70.75851569076747
70.74814006721266
70.73779598126252
70.72746392425725
70.71713040967485
70.70678664802439
70.69642768264684
95.42952524074202
95.29562160949764
95.16034547933286
95.02367127780816
94.8855586521969
94.7459517959289
94.60477685975266
94.46193726196189
94.31730505183913
94.17070463973704
94.0218815828397
93.87044875558622
93.71589551507886
93.55787702246809
93.39921611598655
93.24031990643155
93.08115575102764
92.92164190514403
92.76163012460988
92.60088655660566
92.4390613402226
92.27565889054864
92.11003639617849
72.18703642422167
72.06941617746749
72.08199584431493
72.0792611778584
72.07991199396548
72.07944660591774
72.08105083117857
72.07055110867238
70.80008329637766
70.7895980426867
70.77924075753255
70.76895692923266
70.75870569141088
70.74845932849358
70.73819999098527
70.72791614963612
70.71760062499855
70.70724948067141
95.43503288190061
95.30113267043271
95.16586526190032
95.02920664601258
94.8911183110285
94.75154696624908
94.6104230357537
94.46765791957158
94.3231391188588
94.1767213513313
94.02820965577041
93.87733600228071
93.72379647018968
93.56744608192794
93.41081699169897
93.25401713525424
93.09703075338092
92.9398105746673
92.78226256422386
92.62422331418756
92.46541645257419
92.30533307294681
92.14317493215243
72.17307664860617
72.08723680301553
72.09154578880467
72.0909910437141
72.09103565601005
72.09085605078594
72.09189992990915
72.08343214311977
70.80992799898316
70.79968894592136
70.78955874878068
70.77946578152603
70.76936471566395
70.75923287330734
70.74905716425745
70.73882982114911
70.72854628108249
70.71820413701506
95.44069743652548
95.30680138097219
95.17154472660556
95.0349049124896
94.8968453000999
94.75731524159028
94.61624964899177
94.47356828352102
94.32917479404102
94.18295547047414
94.0347774709559
93.88449207422246
93.73198150777736
93.577283183398
93.42267921843425
93.26798695906636
93.11322108853517
92.95838242288094
92.8034497173969
92.64836564265305
92.49300387472186
92.33708870404905
92.17951378498444
72.15518956627422
72.10621903757855
72.10090865450394
72.10289586411919
72.1022317663079
72.10238636834815
72.10277787080041
72.09666809370307
70.81966652740319
70.80977277596108
70.79994947532798
70.79008328396446
70.78015259828356
70.77014713272071
70.76006220330487
70.74989559746118
70.73964628404939
70.72931382306018
95.44651843095853
95.3126272053835
95.17738320839665
95.04076526194308
94.9027385992599
94.76325525538694
94.62225468918056
94.47966510311824
94.33540639591753
94.18939656428404
94.04156512668034
93.89188018007901
93.74039702710155
93.58732679173451
93.43472388548649
93.28212243902911
93.12957389737261
92.97713427993261
92.82486627771682
92.67284245030078
92.52115029510166
92.36990088901723
74.6781615420782
74.6781615420782
74.6781615420782
74.6781615420782
74.6781615420782
74.6781615420782
74.6781615420782
74.6781615420782
74.6781615420782
74.6781615420782
70.81996340163504
70.81048484390477
70.80086407794249
70.79111203496879
70.7812368376916
70.77124453172796
70.76113951053993
70.7509247700087
70.74060206155187
96.36792146793024
96.23566278507097
96.10494996784546
95.97580088428269
95.84824517965644
95.72232442442318
95.59809230102336
95.47561470480557
95.35496950673799
95.23624548382577
95.11953943978703
95.00494969807826
94.89256374450876
94.78244027527074
94.67439540321114
94.56659250744163
94.45902909190825
94.35170150422242
94.24460436319907
94.13772968969504
94.03106553275205
93.92459363390256
74.6781615420782
74.6781615420782
74.6781615420782
74.6781615420782
74.6781615420782
74.6781615420782
74.6781615420782
74.6781615420782
74.6781615420782
74.6781615420782
72.13975022705024
72.12628907337084
72.11321248248261
72.10051637226461
72.08819758555055
72.07625369107534
72.0646828672884
72.0534838324237
72.04265580228268
96.97541062352312
96.84290070561403
96.71117561915393
96.58022866512486
96.45004846552574
96.32061879657934
96.19191835885617
96.06392051588608
95.93659306701538
95.809898186001
95.68379278921738
95.55822982915072
95.43316113025395
95.30854173941246
95.18510998973264
95.06176329419212
94.93849924645599
94.81531571186844
94.69221098028132
94.5691839988926
94.44623474109792
94.32336483428047
74.6781615420782
74.6781615420782
74.6781615420782
74.6781615420782
74.6781615420782
74.6781615420782
74.6781615420782
74.6781615420782
74.6781615420782
74.6781615420782
72.15639413109733
72.14553754103409
72.13470524254298
72.12389882655026
72.11311955330686
72.1023684069185
72.09164612740473
72.08095323013376
72.07029001762415
97.29596570292273
97.16348488043252
97.03171787398232
96.90066671786047
96.77033476079005
96.64072675334766
96.51184897060202
96.38370936273415
96.25631771746899
96.12968580051687
96.00382740423157
95.87875817106331
95.75449502262056
95.63105519292358
95.50901711511654
95.3871039559517
95.26531699297927
95.1436574439736
95.0221264269913
94.90072489886768
94.77945355707254
94.65831267187113
74.6781615420782
74.6781615420782
74.6781615420782
74.6781615420782
74.6781615420782
74.6781615420782
74.6781615420782
74.6781615420782
74.6781615420782
74.6781615420782
72.1562728955826
72.14475631399964
72.13335689968814
72.12207406858941
72.11090734652186
72.09985635412085
72.08892079789538
72.07810046475264
72.06739521864692
97.47645317076721
97.34397046031202
97.21212257909883
97.08090905189064
96.95032897636933
96.82038098746764
96.69106320681995
96.56237317871458
96.43430779618743
96.30686322554438
96.18003484729672
96.05381724885821
95.92820431471083
95.80318941603637
95.6794577697007
95.5558284535009
95.4323008998049
95.30887455191942
95.1855488743119
95.06232336864005
94.93919759964912
94.81617123982812
74.6781615420782
74.6781615420782
74.6781615420782
74.6781615420782
74.6781615420782
74.6781615420782
74.6781615420782
74.6781615420782
74.6781615420782
74.6781615420782
72.15627398625169
72.14492981575064
72.1336781312585
72.12251909928959
72.111452851178
72.10047948726793
72.0895990794328
72.07881167263554
72.06811728589234
97.57291026517453
97.4404262693336
97.30853500830436
97.17723670021796
97.04653163557931
96.9164201902038
96.78690284371298
96.65798020343715
96.52965303302543
96.401922283862
96.27478912479367
96.1482549609476
96.02232142945702
95.89699037137213
95.77295077013278
95.6490154034872
95.52518445327627
95.40145809954983
95.2778365180063
95.15431987586253
95.03090832505649
94.90760199038023
74.6781615420782
74.6781615420782
74.6781615420782
74.6781615420782
74.6781615420782
74.6781615420782
74.6781615420782
74.6781615420782
74.6781615420782
74.6781615420782
72.15628968150536
72.14490032308245
72.13361003089675
72.12241872605648
72.11132634058806
72.10033281625672
72.08943810384768
72.07864216271498
72.06794496050004
97.62008807874008
97.4876043943468
97.35569457214727
97.22435866850068
97.0935966955474
96.96340861658652
96.8337943394086
96.70475370753701
96.57628648945932
96.44839236624941
96.32107091870434
96.19432161647356
96.06814381254173
95.94253674323251
95.81820503953769
95.69397445056474
95.56984490638628
95.4458163368311
95.32188867213885
95.19806184406495
95.07433578774976
94.95071044504152
74.6781615420782
74.6781615420782
74.6781615420782
74.6781615420782
74.6781615420782
74.6781615420782
74.6781615420782
74.6781615420782
74.6781615420782
74.6781615420782
72.15628173940823
72.14490444574814
72.1336244303628
72.12244169349468
72.1113562317143
72.10036803827622
72.08947710333953
72.07868341410826
72.06798695492006
97.63416922403994
97.5016852779809
97.36976888423274
97.23842015019034
97.10763917860949
96.97742607027222
96.84778092785812
96.71870386108506
96.59019499313253
96.46225446821371
96.33488245980985
96.20807917840766
96.08184487712786
95.95617985520391
95.83179031410987
95.70750198133192
95.5833148970108
95.45922910138351
95.33524463449133
95.2113615356629
95.08757984261396
94.9638995898188
74.6781615420782
74.6781615420782
74.6781615420782
74.6781615420782
74.6781615420782
74.6781615420782
74.6781615420782
74.6781615420782
74.6781615420782
74.6781615420782
72.15628534066978
72.14490410764331
72.13362074790403
72.12243523094185
72.11134752817095
72.10035761274368
72.08946545943368
72.07867104456092
72.06797434594382
97.6200880787399
97.48760439434659
97.35569457214702
97.22435866850032
97.09359669554685
96.96340861658574
96.83379433940765
96.70475370753596
96.57628648945816
96.44839236624802
96.32107091870265
96.19432161647157
96.06814381253943
95.94253674322988
95.81820503953473
95.69397445056148
95.56984490638278
95.44581633682735
95.32188867213489
95.19806184406085
95.07433578774557
94.95071044503726
74.6781615420782
74.6781615420782
74.6781615420782
74.6781615420782
74.6781615420782
74.6781615420782
74.6781615420782
74.6781615420782
74.6781615420782
74.6781615420782
72.15628173940128
72.14490444574119
72.13362443035585
72.12244169348772
72.1113562317073
72.1003680382692
72.08947710333247
72.07868341410119
72.067986954913
97.57291026517896
97.44042626933803
97.3085350083088
97.17723670022247
97.0465316355839
96.91642019020848
96.7869028437177
96.65798020344182
96.52965303303006
96.40192228386668
96.27478912479845
96.14825496095249
96.02232142946202
95.89699037137734
95.77295077013818
95.64901540349275
95.52518445328197
95.40145809955574
95.27783651801231
95.15431987586858
95.03090832506253
94.90760199038624
74.6781615420782
74.6781615420782
74.6781615420782
74.6781615420782
74.6781615420782
74.6781615420782
74.6781615420782
74.6781615420782
74.6781615420782
74.6781615420782
72.15628968148356
72.14490032306054
72.13361003087472
72.12241872603433
72.1113263405658
72.10033281623437
72.08943810382527
72.07864216269253
72.06794496047759
97.47645317077423
97.34397046031907
97.21212257910598
97.08090905189783
96.9503289763765
96.82038098747469
96.69106320682697
96.56237317872157
96.43430779619432
96.30686322555108
96.18003484730313
96.05381724886428
95.92820431471657
95.80318941604176
95.67945776970576
95.55582845350571
95.43230089980958
95.30887455192395
95.18554887431632
95.0623233686444
94.93919759965343
94.81617123983239
74.6781615420782
74.6781615420782
74.6781615420782
74.6781615420782
74.6781615420782
74.6781615420782
74.6781615420782
74.6781615420782
74.6781615420782
74.6781615420782
72.15627398625007
72.14492981574902
72.13367813125691
72.12251909928804
72.11145285117647
72.10047948726648
72.08959907943138
72.07881167263412
72.06811728589092
97.29596570293899
97.16348488044878
97.03171787399852
96.90066671787662
96.77033476080614
96.64072675336374
96.51184897061802
96.38370936275011
96.25631771748496
96.12968580053288
96.00382740424764
95.87875817107944
95.7544950226367
95.63105519293974
95.50901711513268
95.38710395596785
95.2653169929953
95.14365744398944
95.02212642700705
94.90072489888331
94.77945355708799
94.6583126718864
74.6781615420782
74.6781615420782
74.6781615420782
74.6781615420782
74.6781615420782
74.6781615420782
74.6781615420782
74.6781615420782
74.6781615420782
74.6781615420782
72.15627289557916
72.14475631399618
72.13335689968467
72.12207406858595
72.11090734651837
72.09985635411734
72.08892079789187
72.07810046474914
72.06739521864345
96.97541062354348
96.84290070563439
96.71117561917441
96.58022866514544
96.45004846554646
96.32061879660016
96.1919183588771
96.06392051590711
95.9365930670365
95.8098981860222
95.68379278923867
95.5582298291721
95.43316113027551
95.30854173943422
95.18510998975464
95.06176329421432
94.93849924647839
94.81531571189106
94.69221098030408
94.56918399891549
94.4462347411209
94.32336483430343
74.6781615420782
74.6781615420782
74.6781615420782
74.6781615420782
74.6781615420782
74.6781615420782
74.6781615420782
74.6781615420782
74.6781615420782
74.6781615420782
72.15639413108303
72.14553754101968
72.13470524252848
72.1238988265357
72.11311955329226
72.1023684069039
72.09164612739013
72.08095323011922
72.07029001760961
96.3679214679352
96.23566278507597
96.10494996785047
95.97580088428774
95.84824517966146
95.72232442442814
95.59809230102823
95.47561470481038
95.35496950674279
95.23624548383057
95.11953943979185
95.00494969808307
94.89256374451354
94.7824402752755
94.67439540321583
94.5665925074463
94.45902909191287
94.35170150422691
94.24460436320354
94.13772968969943
94.03106553275632
93.92459363390675
74.6781615420782
74.6781615420782
74.6781615420782
74.6781615420782
74.6781615420782
74.6781615420782
74.6781615420782
74.6781615420782
74.6781615420782
74.6781615420782
72.13975022705147
72.12628907337206
72.11321248248385
72.10051637226583
72.08819758555175
72.07625369107647
72.06468286728948
72.05348383242472
72.04265580228369
95.44651843095888
95.31262720538383
95.17738320839696
95.04076526194333
94.90273859926018
94.76325525538725
94.622254689181
94.47966510311876
94.33540639591813
94.18939656428472
94.04156512668112
93.89188018007992
93.74039702710255
93.58732679173555
93.43472388548757
93.28212243903022
93.12957389737379
92.97713427993396
92.8248662777182
92.67284245030221
92.52115029510313
92.36990088901874
74.6781615420782
74.6781615420782
74.6781615420782
74.6781615420782
74.6781615420782
74.6781615420782
74.6781615420782
74.6781615420782
74.6781615420782
74.6781615420782
70.81996340162414
70.81048484389396
70.80086407793175
70.79111203495809
70.78123683768095
70.77124453171737
70.7611395105294
70.75092476999819
70.74060206154135
95.44069743652591
95.30680138097249
95.17154472660582
95.03490491248984
94.89684530010022
94.75731524159055
94.61624964899222
94.4735682835216
94.32917479404165
94.18295547047491
94.03477747095674
93.88449207422346
93.7319815077785
93.57728318339909
93.42267921843543
93.26798695906753
93.11322108853639
92.95838242288227
92.80344971739828
92.64836564265447
92.49300387472324
92.33708870405053
92.17951378498593
72.1551895662826
72.10621903760904
72.10090865451527
72.10289586412999
72.10223176635046
72.10238636835813
72.10277787079895
72.09666809370488
70.81966652739226
70.80977277595012
70.79994947531705
70.79008328395362
70.78015259827276
70.77014713270994
70.76006220329413
70.7498955974505
70.73964628403868
70.7293138230495
95.43503288190105
95.301132670433
95.16586526190062
95.02920664601277
94.89111831102886
94.75154696624931
94.61042303575414
94.4676579195723
94.32313911885949
94.17672135133219
94.02820965577126
93.87733600228168
93.7237964701909
93.56744608192919
93.41081699170017
93.25401713525542
93.09703075338219
92.93981057466863
92.78226256422522
92.62422331418894
92.46541645257557
92.30533307294826
92.14317493215393
72.17307664861467
72.08723680304608
72.09154578881602
72.09099104372496
72.09103565605274
72.09085605079598
72.09189992990774
72.08343214312144
70.80992799897213
70.79968894591036
70.78955874876972
70.77946578151507
70.76936471565305
70.75923287329648
70.74905716424664
70.73882982113827
70.72854628107163
70.71820413700424
95.42952524074248
95.29562160949793
95.16034547933324
95.02367127780843
94.88555865219723
94.7459517959291
94.60477685975302
94.46193726196262
94.31730505184002
94.17070463973798
94.02188158284058
93.8704487555873
93.71589551508013
93.55787702246936
93.3992161159878
93.2403199064328
93.08115575102887
92.92164190514534
92.76163012461124
92.60088655660704
92.43906134022393
92.27565889055002
92.11003639617986
72.18703642423033
72.06941617749817
72.08199584432633
72.07926117786947
72.07991199400828
72.07944660592781
72.08105083117715
72.07055110867391
70.8000832963666
70.78959804267559
70.77924075752152
70.76895692922162
70.75870569139994
70.7484593284827
70.73819999097437
70.72791614962517
70.71760062498765
70.70724948066048
95.42417486358805
95.29026862647689
95.15498594810283
95.01829952282105
94.88016723285824
94.74053096942657
94.59931297455356
94.4564093486014
94.31167796737398
94.16491526659921
94.01581221664527
93.86386782462066
93.70833709707499
93.54863413384722
93.38793706584809
93.22697024881506