# vtk DataFile Version 2.0
Niestacjonarne zagadnienie cieplne - ogrzewanie wody w garnku stalowym
ASCII
DATASET UNSTRUCTURED_GRID
POINTS 1353 float
0.0 0.0 0.0
0.0 3.846153846153846E-4 0.0
0.0 7.692307692307692E-4 0.0
0.0 0.0011538461538461537 0.0
0.0 0.0015384615384615385 0.0
0.0 0.0019230769230769232 0.0
0.0 0.0023076923076923075 0.0
0.0 0.002692307692307692 0.0
0.0 0.003076923076923077 0.0
0.0 0.0034615384615384616 0.0
0.0 0.0038461538461538464 0.0
0.0 0.004230769230769231 0.0
0.0 0.004615384615384615 0.0
0.0 0.005 0.0
0.0 0.005111111111111111 0.0
0.0 0.005222222222222223 0.0
0.0 0.005333333333333333 0.0
0.0 0.0054444444444444445 0.0
0.0 0.005555555555555556 0.0
0.0 0.005666666666666667 0.0
0.0 0.0057777777777777775 0.0
0.0 0.005888888888888889 0.0
0.0 0.006 0.0
0.0 0.01711111111111111 0.0
0.0 0.028222222222222225 0.0
0.0 0.03933333333333333 0.0
0.0 0.050444444444444445 0.0
0.0 0.06155555555555556 0.0
0.0 0.07266666666666667 0.0
0.0 0.08377777777777778 0.0
0.0 0.0948888888888889 0.0
0.0 0.10600000000000001 0.0
0.0 0.10611111111111113 0.0
0.0 0.10622222222222223 0.0
0.0 0.10633333333333335 0.0
0.0 0.10644444444444445 0.0
0.0 0.10655555555555557 0.0
0.0 0.10666666666666667 0.0
0.0 0.10677777777777779 0.0
0.0 0.1068888888888889 0.0
0.0 0.10700000000000001 0.0
1.1111111111111112E-4 0.0 0.0
1.1111111111111112E-4 3.846153846153846E-4 0.0
1.1111111111111112E-4 7.692307692307692E-4 0.0
1.1111111111111112E-4 0.0011538461538461537 0.0
1.1111111111111112E-4 0.0015384615384615385 0.0
1.1111111111111112E-4 0.0019230769230769232 0.0
1.1111111111111112E-4 0.0023076923076923075 0.0
1.1111111111111112E-4 0.002692307692307692 0.0
1.1111111111111112E-4 0.003076923076923077 0.0
1.1111111111111112E-4 0.0034615384615384616 0.0
1.1111111111111112E-4 0.0038461538461538464 0.0
1.1111111111111112E-4 0.004230769230769231 0.0
1.1111111111111112E-4 0.004615384615384615 0.0
1.1111111111111112E-4 0.005 0.0
1.1111111111111112E-4 0.005111111111111111 0.0
1.1111111111111112E-4 0.005222222222222223 0.0
1.1111111111111112E-4 0.005333333333333333 0.0
1.1111111111111112E-4 0.0054444444444444445 0.0
1.1111111111111112E-4 0.005555555555555556 0.0
1.1111111111111112E-4 0.005666666666666667 0.0
1.1111111111111112E-4 0.0057777777777777775 0.0
1.1111111111111112E-4 0.005888888888888889 0.0
1.1111111111111112E-4 0.006 0.0
1.1111111111111112E-4 0.01711111111111111 0.0
1.1111111111111112E-4 0.028222222222222225 0.0
1.1111111111111112E-4 0.03933333333333333 0.0
1.1111111111111112E-4 0.050444444444444445 0.0
1.1111111111111112E-4 0.06155555555555556 0.0
1.1111111111111112E-4 0.07266666666666667 0.0
1.1111111111111112E-4 0.08377777777777778 0.0
1.1111111111111112E-4 0.0948888888888889 0.0
1.1111111111111112E-4 0.10600000000000001 0.0
1.1111111111111112E-4 0.10611111111111113 0.0
1.1111111111111112E-4 0.10622222222222223 0.0
1.1111111111111112E-4 0.10633333333333335 0.0
1.1111111111111112E-4 0.10644444444444445 0.0
1.1111111111111112E-4 0.10655555555555557 0.0
1.1111111111111112E-4 0.10666666666666667 0.0
1.1111111111111112E-4 0.10677777777777779 0.0
1.1111111111111112E-4 0.1068888888888889 0.0
1.1111111111111112E-4 0.10700000000000001 0.0
2.2222222222222223E-4 0.0 0.0
2.2222222222222223E-4 3.846153846153846E-4 0.0
2.2222222222222223E-4 7.692307692307692E-4 0.0
2.2222222222222223E-4 0.0011538461538461537 0.0
2.2222222222222223E-4 0.0015384615384615385 0.0
2.2222222222222223E-4 0.0019230769230769232 0.0
2.2222222222222223E-4 0.0023076923076923075 0.0
2.2222222222222223E-4 0.002692307692307692 0.0
2.2222222222222223E-4 0.003076923076923077 0.0
2.2222222222222223E-4 0.0034615384615384616 0.0
2.2222222222222223E-4 0.0038461538461538464 0.0
2.2222222222222223E-4 0.004230769230769231 0.0
2.2222222222222223E-4 0.004615384615384615 0.0
2.2222222222222223E-4 0.005 0.0
2.2222222222222223E-4 0.005111111111111111 0.0
2.2222222222222223E-4 0.005222222222222223 0.0
2.2222222222222223E-4 0.005333333333333333 0.0
2.2222222222222223E-4 0.0054444444444444445 0.0
2.2222222222222223E-4 0.005555555555555556 0.0
2.2222222222222223E-4 0.005666666666666667 0.0
2.2222222222222223E-4 0.0057777777777777775 0.0
2.2222222222222223E-4 0.005888888888888889 0.0
2.2222222222222223E-4 0.006 0.0
2.2222222222222223E-4 0.01711111111111111 0.0
2.2222222222222223E-4 0.028222222222222225 0.0
2.2222222222222223E-4 0.03933333333333333 0.0
2.2222222222222223E-4 0.050444444444444445 0.0
2.2222222222222223E-4 0.06155555555555556 0.0
2.2222222222222223E-4 0.07266666666666667 0.0
2.2222222222222223E-4 0.08377777777777778 0.0
2.2222222222222223E-4 0.0948888888888889 0.0
2.2222222222222223E-4 0.10600000000000001 0.0
2.2222222222222223E-4 0.10611111111111113 0.0
2.2222222222222223E-4 0.10622222222222223 0.0
2.2222222222222223E-4 0.10633333333333335 0.0
2.2222222222222223E-4 0.10644444444444445 0.0
2.2222222222222223E-4 0.10655555555555557 0.0
2.2222222222222223E-4 0.10666666666666667 0.0
2.2222222222222223E-4 0.10677777777777779 0.0
2.2222222222222223E-4 0.1068888888888889 0.0
2.2222222222222223E-4 0.10700000000000001 0.0
3.333333333333334E-4 0.0 0.0
3.333333333333334E-4 3.846153846153846E-4 0.0
3.333333333333334E-4 7.692307692307692E-4 0.0
3.333333333333334E-4 0.0011538461538461537 0.0
3.333333333333334E-4 0.0015384615384615385 0.0
3.333333333333334E-4 0.0019230769230769232 0.0
3.333333333333334E-4 0.0023076923076923075 0.0
3.333333333333334E-4 0.002692307692307692 0.0
3.333333333333334E-4 0.003076923076923077 0.0
3.333333333333334E-4 0.0034615384615384616 0.0
3.333333333333334E-4 0.0038461538461538464 0.0
3.333333333333334E-4 0.004230769230769231 0.0
3.333333333333334E-4 0.004615384615384615 0.0
3.333333333333334E-4 0.005 0.0
3.333333333333334E-4 0.005111111111111111 0.0
3.333333333333334E-4 0.005222222222222223 0.0
3.333333333333334E-4 0.005333333333333333 0.0
3.333333333333334E-4 0.0054444444444444445 0.0
3.333333333333334E-4 0.005555555555555556 0.0
3.333333333333334E-4 0.005666666666666667 0.0
3.333333333333334E-4 0.0057777777777777775 0.0
3.333333333333334E-4 0.005888888888888889 0.0
3.333333333333334E-4 0.006 0.0
3.333333333333334E-4 0.01711111111111111 0.0
3.333333333333334E-4 0.028222222222222225 0.0
3.333333333333334E-4 0.03933333333333333 0.0
3.333333333333334E-4 0.050444444444444445 0.0
3.333333333333334E-4 0.06155555555555556 0.0
3.333333333333334E-4 0.07266666666666667 0.0
3.333333333333334E-4 0.08377777777777778 0.0
3.333333333333334E-4 0.0948888888888889 0.0
3.333333333333334E-4 0.10600000000000001 0.0
3.333333333333334E-4 0.10611111111111113 0.0
3.333333333333334E-4 0.10622222222222223 0.0
3.333333333333334E-4 0.10633333333333335 0.0
3.333333333333334E-4 0.10644444444444445 0.0
3.333333333333334E-4 0.10655555555555557 0.0
3.333333333333334E-4 0.10666666666666667 0.0
3.333333333333334E-4 0.10677777777777779 0.0
3.333333333333334E-4 0.1068888888888889 0.0
3.333333333333334E-4 0.10700000000000001 0.0
4.4444444444444447E-4 0.0 0.0
4.4444444444444447E-4 3.846153846153846E-4 0.0
4.4444444444444447E-4 7.692307692307692E-4 0.0
4.4444444444444447E-4 0.0011538461538461537 0.0
4.4444444444444447E-4 0.0015384615384615385 0.0
4.4444444444444447E-4 0.0019230769230769232 0.0
4.4444444444444447E-4 0.0023076923076923075 0.0
4.4444444444444447E-4 0.002692307692307692 0.0
4.4444444444444447E-4 0.003076923076923077 0.0
4.4444444444444447E-4 0.0034615384615384616 0.0
4.4444444444444447E-4 0.0038461538461538464 0.0
4.4444444444444447E-4 0.004230769230769231 0.0
4.4444444444444447E-4 0.004615384615384615 0.0
4.4444444444444447E-4 0.005 0.0
4.4444444444444447E-4 0.005111111111111111 0.0
4.4444444444444447E-4 0.005222222222222223 0.0
4.4444444444444447E-4 0.005333333333333333 0.0
4.4444444444444447E-4 0.0054444444444444445 0.0
4.4444444444444447E-4 0.005555555555555556 0.0
4.4444444444444447E-4 0.005666666666666667 0.0
4.4444444444444447E-4 0.0057777777777777775 0.0
4.4444444444444447E-4 0.005888888888888889 0.0
4.4444444444444447E-4 0.006 0.0
4.4444444444444447E-4 0.01711111111111111 0.0
4.4444444444444447E-4 0.028222222222222225 0.0
4.4444444444444447E-4 0.03933333333333333 0.0
4.4444444444444447E-4 0.050444444444444445 0.0
4.4444444444444447E-4 0.06155555555555556 0.0
4.4444444444444447E-4 0.07266666666666667 0.0
4.4444444444444447E-4 0.08377777777777778 0.0
4.4444444444444447E-4 0.0948888888888889 0.0
4.4444444444444447E-4 0.10600000000000001 0.0
4.4444444444444447E-4 0.10611111111111113 0.0
4.4444444444444447E-4 0.10622222222222223 0.0
4.4444444444444447E-4 0.10633333333333335 0.0
4.4444444444444447E-4 0.10644444444444445 0.0
4.4444444444444447E-4 0.10655555555555557 0.0
4.4444444444444447E-4 0.10666666666666667 0.0
4.4444444444444447E-4 0.10677777777777779 0.0
4.4444444444444447E-4 0.1068888888888889 0.0
4.4444444444444447E-4 0.10700000000000001 0.0
5.555555555555556E-4 0.0 0.0
5.555555555555556E-4 3.846153846153846E-4 0.0
5.555555555555556E-4 7.692307692307692E-4 0.0
5.555555555555556E-4 0.0011538461538461537 0.0
5.555555555555556E-4 0.0015384615384615385 0.0
5.555555555555556E-4 0.0019230769230769232 0.0
5.555555555555556E-4 0.0023076923076923075 0.0
5.555555555555556E-4 0.002692307692307692 0.0
5.555555555555556E-4 0.003076923076923077 0.0
5.555555555555556E-4 0.0034615384615384616 0.0
5.555555555555556E-4 0.0038461538461538464 0.0
5.555555555555556E-4 0.004230769230769231 0.0
5.555555555555556E-4 0.004615384615384615 0.0
5.555555555555556E-4 0.005 0.0
5.555555555555556E-4 0.005111111111111111 0.0
5.555555555555556E-4 0.005222222222222223 0.0
5.555555555555556E-4 0.005333333333333333 0.0
5.555555555555556E-4 0.0054444444444444445 0.0
5.555555555555556E-4 0.005555555555555556 0.0
5.555555555555556E-4 0.005666666666666667 0.0
5.555555555555556E-4 0.0057777777777777775 0.0
5.555555555555556E-4 0.005888888888888889 0.0
5.555555555555556E-4 0.006 0.0
5.555555555555556E-4 0.01711111111111111 0.0
5.555555555555556E-4 0.028222222222222225 0.0
5.555555555555556E-4 0.03933333333333333 0.0
5.555555555555556E-4 0.050444444444444445 0.0
5.555555555555556E-4 0.06155555555555556 0.0
[...]
POINT_DATA 1353
SCALARS Temperatura float 1
LOOKUP_TABLE default
77.06688113743043
76.92929986688974
76.79053210098932
76.65054174041163
76.50928569074196
76.36670562095445
76.2227223546424
76.07722615757852
75.93005966359414
75.780980357793
75.62960585782051
75.47520620891046
75.31670589711034
75.14930779820818
74.9747632525869
74.8057043859035
74.63778462376834
74.47010980835636
74.30203640690065
74.13305345664084
73.96269819511828
73.79052982362931
73.61612089460566
53.65297273017427
53.44437591965428
53.48027672105596
53.47145932559691
53.47373495123413
53.47271733556684
53.474884188732744
53.46425800259604
52.617549592192574
52.61032518321049
52.60320594002689
52.596178720276946
52.58923114686842
52.58235214473784
52.57553233048067
52.56876425981814
52.56204256175331
52.55536399781796
77.07035005534465
76.9327627448908
76.7939879701796
76.65399106900112
76.51272900281322
76.3701436956175
76.22615628941263
76.08065788617945
75.93349175134102
75.78442091479282
75.63305530750351
75.47873448358077
75.32014399848515
75.15404212660987
74.98493256265417
74.81646205111869
74.6489346391213
74.48151723873877
74.31365643443503
74.14486675091322
73.97469605280209
73.80270649461403
73.62846969574053
53.657970252397824
53.45176896076662
53.487048104284526
53.47839311492314
53.48062472390924
53.479624908001824
53.48176272269595
53.471239052116026
52.62421397568933
52.61699482854041
52.60988080301547
52.60285841532151
52.59591501262602
52.58903932427366
52.58222184691388
52.575455074808076
52.56873361252539
52.56205421529397
77.07396423158352
76.9363738953707
76.79759480683647
76.65759488808445
76.51633158652231
76.37374749094619
76.22976483686591
76.08427668915424
75.9371304085255
75.78809616250362
75.63680077120516
75.4826189610078
75.32427155452625
75.15972496416664
74.99317572986543
74.82660505158138
74.66012100139372
74.49349777829272
74.32632203869947
74.15817281769361
73.9886234291176
73.8172422849284
73.64359641946531
53.659194883144764
53.46027100161777
53.49366834298811
53.485504927375445
53.4876033011532
53.486657408016285
53.48870711194588
53.4784955555476
52.63086630371416
52.623666286199985
52.61657117811149
52.60956644031562
52.60263858375577
52.595775762752
52.58896813838212
52.582208047451054
52.57549004352234
52.568810876960384
77.07772470935564
76.9401332237907
76.80135251394198
76.66135305277771
76.52009324422473
76.3775167365856
76.2335475312754
76.08808195751634
75.94097383568241
75.79200535770192
75.64083115383963
75.48686785765943
75.32902251356344
75.1659753326572
75.00140042164804
74.83658823068286
74.67155066609747
74.5061372381025
74.34006784978467
74.17298508308511
74.00448978876702
73.83415305332268
73.6615282478773
53.65663553662737
53.469886624414386
53.500135825406154
53.49279533646235
53.49467050941327
53.49381497745416
53.4957171814783
53.48602796440698
52.6375056303725
52.63033983201338
52.623278436187896
52.61630501566013
52.60940464501098
52.602564556346024
52.595774432189636
52.58902643501539
52.58231510403506
52.57563722476766
77.08163201187372
76.9440407022244
76.80526090179033
76.66526531794005
76.5240136466189
76.38145096676408
76.23750365771883
76.09207248562453
75.94501982700744
75.79614476650089
75.64513627496008
75.49147596012284
75.33429447087053
75.1726998127096
75.0099193271554
74.84683986542379
74.6834187184337
74.51952237879794
74.35492240818857
74.18930799421081
74.02229928352831
73.85345931823201
73.68231061906162
53.65027410226176
53.48062335926022
53.506447872316954
53.5002652780565
53.501826045703865
53.50109783719409
53.50279262669591
53.493837007319115
52.644130331574274
52.63701608685364
52.630005164451205
52.623078182058755
52.61621812680206
52.609411059300754
52.602646205028236
52.5959156911587
52.5892141915416
52.58253863004396
77.08568635169476
76.94809625382544
76.8093197074316
76.6693313357681
76.52809233508881
76.38554953858628
76.2416322370946
76.09624661754422
75.94926550298636
75.80050870788487
75.64970571744017
75.49642237970117
75.34000497824815
75.1798465034711
75.01882274556107
74.85750668306905
74.69583710979643
74.53369255723283
74.37087746921178
74.20711368841775
74.04203338491027
73.87517697012143
73.70600822322781
53.64008516164452
53.49249176643553
53.512600712501325
53.50791605795168
53.509069474830476
53.50850628963601
53.50993300686876
53.50192371274716
52.650738022702214
52.643696347917135
52.63675575339852
52.629892420832384
52.62308658935393
52.61632317714688
52.609591309844355
52.60288348236753
52.596194807913115
52.58952253083726
77.0898877293384
76.95229971215487
76.81352859220361
76.6735506584046
76.5323287269401
76.38981164485327
76.24593204574492
76.10060232222908
75.95370727747684
75.80509032424499
75.6545270284691
75.50167879717571
75.3460877856528
75.18736750509709
75.02811346745901
74.868613813924
74.70881343679633
74.54861445184258
74.38785952043864
74.22631180020346
74.0636227037777
73.89930039079495
73.73270692155047
53.626035451621306
53.505505589317906
53.51858943826316
53.51574936518964
53.51640022466167
53.5160407227975
53.517137734368795
53.510289446623666
52.65732542180769
52.6503833064252
52.64353758147935
52.63675775905024
52.63002096876432
52.62331171641296
52.61662007385026
52.60993964197094
52.6032664419633
52.59659829308051
77.09423598365677
76.95665080924522
76.8178871360216
76.67792274094667
76.5367221223174
76.39423632802232
76.25040164786496
76.10513724557572
75.95834098670092
75.80988186621549
75.65958565679698
75.50721414698681
75.35248652951796
75.19521055267381
75.03774952789851
74.88011545698058
74.7222771435094
74.56417534895084
74.40570811186262
74.2467078319955
74.08689680145122
73.92576588805024
73.7625173752696
53.60808286183651
53.51968203481474
53.52440792570817
53.523767295316546
53.523817578151125
53.52370161703155
53.52440605694238
53.518935974772695
52.66388812165094
52.6570827748997
52.65036337364565
52.6436897996349
52.63703640726334
52.63039064020641
52.623745262076106
52.617095994853514
52.610440333218726
52.60377695733861
77.09873082027899
76.96114917463777
76.82239483327429
76.68244694430936
76.54127171210452
76.3988224968735
76.2550394305801
76.10984877302819
75.96316204464499
75.81487490105229
75.66486554657922
75.51299679667643
75.35915048787673
75.20331826806823
75.0476617576065
74.89192048514704
74.73609912203158
74.58019014600318
74.42416598832261
74.26796495260893
74.11145793976821
73.95436808464883
73.79558208591205
53.58617450991269
53.53504230403262
53.530048686788376
53.53197239252064
53.53132065938653
53.53148955627744
53.53173702812236
53.52786556774018
52.67042020525083
52.66380623436268
52.65725896068382
52.650711518392995
52.64415271305642
52.63757696684249
52.63098177595796
52.62436598662259
52.61772907996754
52.6110708425621
77.1033718296954
76.96579433853054
76.82705109089989
76.68712253810833
76.54597658654411
76.4035689449274
76.25984364087749
76.11473410235186
75.9681655968607
75.82006056241897
75.67034984517429
75.51899546885936
75.36603223425523
75.2116297916757
75.05776504067148
74.90391005600772
74.75011091330208
74.59641858185815
74.44289113263233
74.2895969944253
74.13662003393297
73.98406816481459
55.53737008286903
55.53737008286903
55.53737008286903
55.53737008286903
55.53737008286903
55.53737008286903
55.53737008286903
55.53737008286903
55.53737008286903
55.53737008286903
52.67062087342425
52.66426463412653
52.65785348458489
52.651393723026345
52.64489005371654
52.63834598796891
52.63176408216326
52.62514608073448
52.61849300229065
77.89379844137636
77.75770785112203
77.6231117805683
77.4900266232231
77.35847956448099
77.22850872047206
77.10016332421603
76.9735038534911
76.84860188681789
76.72553927079838
76.60440577465029
76.48529368619637
76.36828731321374
76.25344680493012
76.14067351909917
76.02814166454458
75.91584926794081
75.80379311091842
75.691968128908
75.58036652697315
75.46897640378155
75.35777942520495
55.53737008286903
55.53737008286903
55.53737008286903
55.53737008286903
55.53737008286903
55.53737008286903
55.53737008286903
55.53737008286903
55.53737008286903
55.53737008286903
53.557088880875924
53.54800785835673
53.53922979618536
53.53075220964809
53.52257315827426
53.51469113654514
53.50710500871419
53.49981396945282
53.49281752005167
78.41905761380295
78.28273765972503
78.14722951372666
78.01252707487505
77.87861996793161
77.74549338975399
77.61312789479683
77.48149914624756
77.35057768819405
77.22032884938763
77.0907130006628
76.96168658691028
76.83320449683055
76.70522396213597
76.57848821563475
76.451848634327
76.3253029368723
76.19884913992668
76.07248571867147
75.94621184372008
75.82002775063984
75.69393536538105
55.53737008286903
55.53737008286903
55.53737008286903
55.53737008286903
55.53737008286903
55.53737008286903
55.53737008286903
55.53737008286903
55.53737008286903
55.53737008286903
53.56803606961226
53.56071598899455
53.553456012518765
53.54625713122329
53.53912013435782
53.53204563941352
53.525034110170296
53.51808586768178
53.51120109696224
78.69518719730817
78.55889401148181
78.42335502575939
78.28857212886267
78.15454841638946
78.02128827107352
77.88879747612911
77.75708335570418
77.62615492896278
77.49602304956015
77.3667004720008
77.23820173185563
77.11054268595979
76.98373965382714
76.8583841396435
76.73316267552276
76.60807646650684
76.48312664995268
76.35831425345472
76.23364013216857
76.1091048703927
75.98470861425531
55.53737008286903
55.53737008286903
55.53737008286903
55.53737008286903
55.53737008286903
55.53737008286903
55.53737008286903
55.53737008286903
55.53737008286903
55.53737008286903
53.56794684230326
53.5601801694729
53.55253625362278
53.54501471137309
53.537615227748006
53.530337547842095
53.52318147175761
53.516146851488244
53.50923358900534
78.85070165742043
78.7144067280698
78.57879766193778
78.4438740480287
78.30963508608649
78.17607955387203
78.04320576058711
77.91101148753249
77.7794939189667
77.64864957000593
77.51847422654245
77.38896292701276
77.26011002743546
77.13190936675436
77.00504846053292
76.87830103559206
76.75166656924173
76.6251445522239
76.49873449954283
76.37243596684782
76.24624857644646
76.12017206186627
55.53737008286903
55.53737008286903
55.53737008286903
55.53737008286903
55.53737008286903
55.53737008286903
55.53737008286903
55.53737008286903
55.53737008286903
55.53737008286903
53.56794755598488
53.560297537004594
53.55275362698145
53.54531592438846
53.537984505458454
53.53075942651737
53.52364072542053
53.51662842244839
53.509722520862375
78.93371873185087
78.79742265614942
78.66177614682637
78.52677942738666
78.39243278876809
78.25873660120534
78.12569133124599
77.99329756382853
77.86155602888347
77.730467630924
77.60003347792345
77.47025490174315
77.34113345911553
77.21267090848282
77.0855568891082
76.958558347846
76.83167545867636
76.70490839303758
76.57825731708743
76.45172238746258
76.32530374443338
76.19900150004464
55.53737008286903
55.53737008286903
55.53737008286903
55.53737008286903
55.53737008286903
55.53737008286903
55.53737008286903
55.53737008286903
55.53737008286903
55.53737008286903
53.567958114801066
53.560277522043954
53.5527074766521
53.54524791801506
53.537898792451635
53.53066005254832
53.52353165674603
53.51651356907845
53.50960575900797
78.97430471319004
78.83800892779955
78.70234651469339
78.56731754849366
78.43292206385966
78.29916005124684
78.16603145077451
78.03353614414488
77.9016739446582
77.7704445856296
77.63984770811513
77.50988285000551
77.38054943950603
77.25184679429086
77.1244783312734
76.99722256114775
76.87007942322404
76.7430488568332
76.61613080203838
76.48932520077737
76.3626319987519
76.23605114875525
55.53737008286903
55.53737008286903
55.53737008286903
55.53737008286903
55.53737008286903
55.53737008286903
55.53737008286903
55.53737008286903
55.53737008286903
55.53737008286903
53.56795272804638
53.56028029805146
53.55271720944781
53.5452634532731
53.53791901817604
53.530683890617894
53.52355805500051
53.51654149374869
53.50963418736256
78.98641362456308
78.85011760276623
78.71444950528803
78.57940945348334
78.44499756493819
78.31121395591424
78.1780587449067
78.04553205738168
77.91363403171994
77.7823648262762
77.6517246271708
77.52171365586051
77.39233217504781
77.263580492331
77.1361632719951
77.00885886506032
76.88166731289455
76.75458865682442
76.62762293781239
76.50077019591815
76.37403046938526
76.24740379300692
55.53737008286903
55.53737008286903
55.53737008286903
55.53737008286903
55.53737008286903
55.53737008286903
55.53737008286903
55.53737008286903
55.53737008286903
55.53737008286903
53.56795515933368
53.560280064095366
53.552714711580016
53.545259072648186
53.53791311937256
53.53067682493182
53.52355016354227
53.516533110413505
53.50962564171989
78.97430471318988
78.83800892779936
78.70234651469318
78.56731754849339
78.43292206385925
78.29916005124622
78.16603145077373
78.03353614414402
77.90167394465726
77.7704445856285
77.6398477081138
77.50988285000395
77.38054943950421
77.2518467942888
77.12447833127108
76.9972225611452
76.8700794232213
76.74304885683026
76.61613080203527
76.48932520077413
76.3626319987486
76.23605114875188
55.53737008286903
55.53737008286903
55.53737008286903
55.53737008286903
55.53737008286903
55.53737008286903
55.53737008286903
55.53737008286903
55.53737008286903
55.53737008286903
53.56795272804116
53.56028029804624
53.552717209442584
53.545263453267864
53.53791901817078
53.53068389061259
53.52355805499518
53.51654149374336
53.50963418735724
78.93371873185437
78.79742265615292
78.66177614682988
78.52677942739022
78.39243278877174
78.2587366012091
78.12569133124975
77.99329756383224
77.86155602888712
77.73046763092768
77.6000334779272
77.470254901747
77.34113345911948
77.21267090848691
77.08555688911245
76.95855834785037
76.83167545868085
76.70490839304223
76.57825731709217
76.45172238746736
76.32530374443813
76.19900150004938
55.53737008286903
55.53737008286903
55.53737008286903
55.53737008286903
55.53737008286903
55.53737008286903
55.53737008286903
55.53737008286903
55.53737008286903
55.53737008286903
53.567958114784865
53.560277522027675
53.55270747663573
53.545247917998594
53.53789879243507
53.53066005253171
53.52353165672937
53.51651356906176
53.509605758991285
78.85070165742599
78.71440672807536
78.57879766194341
78.44387404803437
78.30963508609213
78.17607955387756
78.04320576059264
77.911011487538
77.77949391897215
77.64864957001123
77.51847422654753
77.38896292701754
77.26011002743998
77.13190936675859
77.0050484605369
76.87830103559585
76.75166656924539
76.62514455222745
76.4987344995463
76.37243596685121
76.24624857644984
76.12017206186962
55.53737008286903
55.53737008286903
55.53737008286903
55.53737008286903
55.53737008286903
55.53737008286903
55.53737008286903
55.53737008286903
55.53737008286903
55.53737008286903
53.567947555983736
53.56029753700346
53.55275362698033
53.54531592438736
53.53798450545737
53.53075942651634
53.52364072541951
53.516628422447354
53.50972252086134
78.69518719732127
78.5588940114949
78.42335502577247
78.28857212887571
78.15454841640245
78.02128827108649
77.888797476142
77.75708335571701
77.62615492897561
77.49602304957301
77.36670047201372
77.23820173186859
77.11054268597276
76.98373965384013
76.85838413965648
76.73316267553574
76.60807646651975
76.48312664996543
76.3583142534674
76.23364013218115
76.10910487040513
75.98470861426762
55.53737008286903
55.53737008286903
55.53737008286903
55.53737008286903
55.53737008286903
55.53737008286903
55.53737008286903
55.53737008286903
55.53737008286903
55.53737008286903
53.567946842300685
53.56018016947031
53.55253625362016
53.54501471137047
53.53761522774538
53.53033754783945
53.52318147175497
53.51614685148562
53.50923358900273
78.41905761381922
78.28273765974131
78.147229513743
78.01252707489148
77.87861996794815
77.74549338977063
77.61312789481362
77.48149914626441
77.35057768821098
77.22032884940461
77.09071300067984
76.9616865869274
76.83320449684781
76.7052239621534
76.57848821565237
76.45184863434478
76.32530293689024
76.19884913994481
76.07248571868972
75.94621184373844
75.82002775065827
75.6939353653995
55.53737008286903
55.53737008286903
55.53737008286903
55.53737008286903
55.53737008286903
55.53737008286903
55.53737008286903
55.53737008286903
55.53737008286903
55.53737008286903
53.56803606960169
53.5607159889839
53.55345601250806
53.546257131212535
53.53912013434703
53.532045639402725
53.52503411015952
53.51808586767105
53.51120109695151
77.89379844138028
77.75770785112597
77.62311178057224
77.49002662322708
77.35847956448497
77.22850872047601
77.10016332421989
76.97350385349492
76.84860188682167
76.72553927080216
76.60440577465411
76.4852936862002
76.36828731321756
76.25344680493393
76.14067351910292
76.02814166454829
75.9158492679445
75.80379311092199
75.69196812891154
75.58036652697665
75.46897640378494
75.35777942520826
55.53737008286903
55.53737008286903
55.53737008286903
55.53737008286903
55.53737008286903
55.53737008286903
55.53737008286903
55.53737008286903
55.53737008286903
55.53737008286903
53.55708888087688
53.5480078583577
53.53922979618632
53.53075220964905
53.52257315827521
53.514691136546034
53.50710500871503
53.49981396945362
53.492817520052455
77.10337182969576
76.9657943385309
76.8270510909002
76.68712253810858
76.54597658654434
76.40356894492764
76.25984364087785
76.11473410235227
75.96816559686118
75.82006056241953
75.67034984517493
75.51899546886006
75.36603223425597
75.21162979167646
75.05776504067228
74.9039100560086
74.75011091330302
74.59641858185924
74.44289113263346
74.2895969944265
74.13662003393425
73.98406816481591
55.53737008286903
55.53737008286903
55.53737008286903
55.53737008286903
55.53737008286903
55.53737008286903
55.53737008286903
55.53737008286903
55.53737008286903
55.53737008286903
52.6706208734162
52.66426463411854
52.657853484576954
52.65139372301844
52.644890053708664
52.63834598796108
52.631764082155485
52.62514608072673
52.6184930022829
77.09873082027941
76.96114917463818
76.82239483327456
76.68244694430958
76.54127171210476
76.39882249687373
76.25503943058045
76.10984877302867
75.96316204464553
75.81487490105287
75.66486554657989
75.51299679667723
75.35915048787761
75.20331826806903
75.04766175760739
74.89192048514798
74.73609912203256
74.58019014600424
74.42416598832371
74.26796495261009
74.11145793976937
73.95436808465007
73.7955820859133
53.58617450991881
53.535042304055445
53.53004868679678
53.53197239252852
53.531320659418085
53.53148955628475
53.53173702812115
53.52786556774167
52.670420205242756
52.66380623435458
52.65725896067574
52.65071151838498
52.644152713048456
52.637576966834544
52.63098177595004
52.62436598661472
52.617729079959666
52.61107084255423
77.09423598365724
76.95665080924562
76.81788713602187
76.67792274094688
76.5367221223176
76.39423632802261
76.2504016478653
76.10513724557624
75.95834098670154
75.80988186621616
75.65958565679766
75.50721414698765
75.35248652951891
75.19521055267472
75.03774952789944
74.88011545698153
74.72227714351035
74.56417534895189
74.40570811186366
74.2467078319966
74.08689680145233
73.9257658880514
73.76251737527082
53.60808286184272
53.51968203483764
53.52440792571664
53.52376729532449
53.52381757818276
53.52370161703882
53.52440605694125
53.51893597477409
52.6638881216428
52.65708277489154
52.650363373637546
52.64368979962678
52.63703640725528
52.63039064019839
52.623745262068134
52.61709599484553
52.61044033321071
52.60377695733063
77.08988772933884
76.95229971215524
76.81352859220394
76.67355065840482
76.5323287269403
76.38981164485347
76.24593204574528
76.10060232222968
75.9537072774775
75.80509032424571
75.6545270284698
75.50167879717664
75.34608778565374
75.18736750509808
75.02811346746002
74.86861381392498
74.7088134367973
74.54861445184358
74.38785952043968
74.22631180020453
74.06362270377879
73.89930039079604
73.7327069215516
53.62603545162764
53.50550558934091
53.51858943827166
53.51574936519773
53.51640022469344
53.5160407228047
53.517137734367644
53.510289446624945
52.65732542179952
52.65038330641699
52.64353758147116
52.63675775904209
52.630020968756206
52.62331171640489
52.61662007384221
52.60993964196287
52.60326644195524
52.59659829307248
77.08568635169512
76.94809625382578
76.80931970743191