# vtk DataFile Version 2.0
Niestacjonarne zagadnienie cieplne - ogrzewanie wody w garnku stalowym
ASCII
DATASET UNSTRUCTURED_GRID
POINTS 1353 float
0.0 0.0 0.0
0.0 3.846153846153846E-4 0.0
0.0 7.692307692307692E-4 0.0
0.0 0.0011538461538461537 0.0
0.0 0.0015384615384615385 0.0
0.0 0.0019230769230769232 0.0
0.0 0.0023076923076923075 0.0
0.0 0.002692307692307692 0.0
0.0 0.003076923076923077 0.0
0.0 0.0034615384615384616 0.0
0.0 0.0038461538461538464 0.0
0.0 0.004230769230769231 0.0
0.0 0.004615384615384615 0.0
0.0 0.005 0.0
0.0 0.005111111111111111 0.0
0.0 0.005222222222222223 0.0
0.0 0.005333333333333333 0.0
0.0 0.0054444444444444445 0.0
0.0 0.005555555555555556 0.0
0.0 0.005666666666666667 0.0
0.0 0.0057777777777777775 0.0
0.0 0.005888888888888889 0.0
0.0 0.006 0.0
0.0 0.01711111111111111 0.0
0.0 0.028222222222222225 0.0
0.0 0.03933333333333333 0.0
0.0 0.050444444444444445 0.0
0.0 0.06155555555555556 0.0
0.0 0.07266666666666667 0.0
0.0 0.08377777777777778 0.0
0.0 0.0948888888888889 0.0
0.0 0.10600000000000001 0.0
0.0 0.10611111111111113 0.0
0.0 0.10622222222222223 0.0
0.0 0.10633333333333335 0.0
0.0 0.10644444444444445 0.0
0.0 0.10655555555555557 0.0
0.0 0.10666666666666667 0.0
0.0 0.10677777777777779 0.0
0.0 0.1068888888888889 0.0
0.0 0.10700000000000001 0.0
1.1111111111111112E-4 0.0 0.0
1.1111111111111112E-4 3.846153846153846E-4 0.0
1.1111111111111112E-4 7.692307692307692E-4 0.0
1.1111111111111112E-4 0.0011538461538461537 0.0
1.1111111111111112E-4 0.0015384615384615385 0.0
1.1111111111111112E-4 0.0019230769230769232 0.0
1.1111111111111112E-4 0.0023076923076923075 0.0
1.1111111111111112E-4 0.002692307692307692 0.0
1.1111111111111112E-4 0.003076923076923077 0.0
1.1111111111111112E-4 0.0034615384615384616 0.0
1.1111111111111112E-4 0.0038461538461538464 0.0
1.1111111111111112E-4 0.004230769230769231 0.0
1.1111111111111112E-4 0.004615384615384615 0.0
1.1111111111111112E-4 0.005 0.0
1.1111111111111112E-4 0.005111111111111111 0.0
1.1111111111111112E-4 0.005222222222222223 0.0
1.1111111111111112E-4 0.005333333333333333 0.0
1.1111111111111112E-4 0.0054444444444444445 0.0
1.1111111111111112E-4 0.005555555555555556 0.0
1.1111111111111112E-4 0.005666666666666667 0.0
1.1111111111111112E-4 0.0057777777777777775 0.0
1.1111111111111112E-4 0.005888888888888889 0.0
1.1111111111111112E-4 0.006 0.0
1.1111111111111112E-4 0.01711111111111111 0.0
1.1111111111111112E-4 0.028222222222222225 0.0
1.1111111111111112E-4 0.03933333333333333 0.0
1.1111111111111112E-4 0.050444444444444445 0.0
1.1111111111111112E-4 0.06155555555555556 0.0
1.1111111111111112E-4 0.07266666666666667 0.0
1.1111111111111112E-4 0.08377777777777778 0.0
1.1111111111111112E-4 0.0948888888888889 0.0
1.1111111111111112E-4 0.10600000000000001 0.0
1.1111111111111112E-4 0.10611111111111113 0.0
1.1111111111111112E-4 0.10622222222222223 0.0
1.1111111111111112E-4 0.10633333333333335 0.0
1.1111111111111112E-4 0.10644444444444445 0.0
1.1111111111111112E-4 0.10655555555555557 0.0
1.1111111111111112E-4 0.10666666666666667 0.0
1.1111111111111112E-4 0.10677777777777779 0.0
1.1111111111111112E-4 0.1068888888888889 0.0
1.1111111111111112E-4 0.10700000000000001 0.0
2.2222222222222223E-4 0.0 0.0
2.2222222222222223E-4 3.846153846153846E-4 0.0
2.2222222222222223E-4 7.692307692307692E-4 0.0
2.2222222222222223E-4 0.0011538461538461537 0.0
2.2222222222222223E-4 0.0015384615384615385 0.0
2.2222222222222223E-4 0.0019230769230769232 0.0
2.2222222222222223E-4 0.0023076923076923075 0.0
2.2222222222222223E-4 0.002692307692307692 0.0
2.2222222222222223E-4 0.003076923076923077 0.0
2.2222222222222223E-4 0.0034615384615384616 0.0
2.2222222222222223E-4 0.0038461538461538464 0.0
2.2222222222222223E-4 0.004230769230769231 0.0
2.2222222222222223E-4 0.004615384615384615 0.0
2.2222222222222223E-4 0.005 0.0
2.2222222222222223E-4 0.005111111111111111 0.0
2.2222222222222223E-4 0.005222222222222223 0.0
2.2222222222222223E-4 0.005333333333333333 0.0
2.2222222222222223E-4 0.0054444444444444445 0.0
2.2222222222222223E-4 0.005555555555555556 0.0
2.2222222222222223E-4 0.005666666666666667 0.0
2.2222222222222223E-4 0.0057777777777777775 0.0
2.2222222222222223E-4 0.005888888888888889 0.0
2.2222222222222223E-4 0.006 0.0
2.2222222222222223E-4 0.01711111111111111 0.0
2.2222222222222223E-4 0.028222222222222225 0.0
2.2222222222222223E-4 0.03933333333333333 0.0
2.2222222222222223E-4 0.050444444444444445 0.0
2.2222222222222223E-4 0.06155555555555556 0.0
2.2222222222222223E-4 0.07266666666666667 0.0
2.2222222222222223E-4 0.08377777777777778 0.0
2.2222222222222223E-4 0.0948888888888889 0.0
2.2222222222222223E-4 0.10600000000000001 0.0
2.2222222222222223E-4 0.10611111111111113 0.0
2.2222222222222223E-4 0.10622222222222223 0.0
2.2222222222222223E-4 0.10633333333333335 0.0
2.2222222222222223E-4 0.10644444444444445 0.0
2.2222222222222223E-4 0.10655555555555557 0.0
2.2222222222222223E-4 0.10666666666666667 0.0
2.2222222222222223E-4 0.10677777777777779 0.0
2.2222222222222223E-4 0.1068888888888889 0.0
2.2222222222222223E-4 0.10700000000000001 0.0
3.333333333333334E-4 0.0 0.0
3.333333333333334E-4 3.846153846153846E-4 0.0
3.333333333333334E-4 7.692307692307692E-4 0.0
3.333333333333334E-4 0.0011538461538461537 0.0
3.333333333333334E-4 0.0015384615384615385 0.0
3.333333333333334E-4 0.0019230769230769232 0.0
3.333333333333334E-4 0.0023076923076923075 0.0
3.333333333333334E-4 0.002692307692307692 0.0
3.333333333333334E-4 0.003076923076923077 0.0
3.333333333333334E-4 0.0034615384615384616 0.0
3.333333333333334E-4 0.0038461538461538464 0.0
3.333333333333334E-4 0.004230769230769231 0.0
3.333333333333334E-4 0.004615384615384615 0.0
3.333333333333334E-4 0.005 0.0
3.333333333333334E-4 0.005111111111111111 0.0
3.333333333333334E-4 0.005222222222222223 0.0
3.333333333333334E-4 0.005333333333333333 0.0
3.333333333333334E-4 0.0054444444444444445 0.0
3.333333333333334E-4 0.005555555555555556 0.0
3.333333333333334E-4 0.005666666666666667 0.0
3.333333333333334E-4 0.0057777777777777775 0.0
3.333333333333334E-4 0.005888888888888889 0.0
3.333333333333334E-4 0.006 0.0
3.333333333333334E-4 0.01711111111111111 0.0
3.333333333333334E-4 0.028222222222222225 0.0
3.333333333333334E-4 0.03933333333333333 0.0
3.333333333333334E-4 0.050444444444444445 0.0
3.333333333333334E-4 0.06155555555555556 0.0
3.333333333333334E-4 0.07266666666666667 0.0
3.333333333333334E-4 0.08377777777777778 0.0
3.333333333333334E-4 0.0948888888888889 0.0
3.333333333333334E-4 0.10600000000000001 0.0
3.333333333333334E-4 0.10611111111111113 0.0
3.333333333333334E-4 0.10622222222222223 0.0
3.333333333333334E-4 0.10633333333333335 0.0
3.333333333333334E-4 0.10644444444444445 0.0
3.333333333333334E-4 0.10655555555555557 0.0
3.333333333333334E-4 0.10666666666666667 0.0
3.333333333333334E-4 0.10677777777777779 0.0
3.333333333333334E-4 0.1068888888888889 0.0
3.333333333333334E-4 0.10700000000000001 0.0
4.4444444444444447E-4 0.0 0.0
4.4444444444444447E-4 3.846153846153846E-4 0.0
4.4444444444444447E-4 7.692307692307692E-4 0.0
4.4444444444444447E-4 0.0011538461538461537 0.0
4.4444444444444447E-4 0.0015384615384615385 0.0
4.4444444444444447E-4 0.0019230769230769232 0.0
4.4444444444444447E-4 0.0023076923076923075 0.0
4.4444444444444447E-4 0.002692307692307692 0.0
4.4444444444444447E-4 0.003076923076923077 0.0
4.4444444444444447E-4 0.0034615384615384616 0.0
4.4444444444444447E-4 0.0038461538461538464 0.0
4.4444444444444447E-4 0.004230769230769231 0.0
4.4444444444444447E-4 0.004615384615384615 0.0
4.4444444444444447E-4 0.005 0.0
4.4444444444444447E-4 0.005111111111111111 0.0
4.4444444444444447E-4 0.005222222222222223 0.0
4.4444444444444447E-4 0.005333333333333333 0.0
4.4444444444444447E-4 0.0054444444444444445 0.0
4.4444444444444447E-4 0.005555555555555556 0.0
4.4444444444444447E-4 0.005666666666666667 0.0
4.4444444444444447E-4 0.0057777777777777775 0.0
4.4444444444444447E-4 0.005888888888888889 0.0
4.4444444444444447E-4 0.006 0.0
4.4444444444444447E-4 0.01711111111111111 0.0
4.4444444444444447E-4 0.028222222222222225 0.0
4.4444444444444447E-4 0.03933333333333333 0.0
4.4444444444444447E-4 0.050444444444444445 0.0
4.4444444444444447E-4 0.06155555555555556 0.0
4.4444444444444447E-4 0.07266666666666667 0.0
4.4444444444444447E-4 0.08377777777777778 0.0
4.4444444444444447E-4 0.0948888888888889 0.0
4.4444444444444447E-4 0.10600000000000001 0.0
4.4444444444444447E-4 0.10611111111111113 0.0
4.4444444444444447E-4 0.10622222222222223 0.0
4.4444444444444447E-4 0.10633333333333335 0.0
4.4444444444444447E-4 0.10644444444444445 0.0
4.4444444444444447E-4 0.10655555555555557 0.0
4.4444444444444447E-4 0.10666666666666667 0.0
4.4444444444444447E-4 0.10677777777777779 0.0
4.4444444444444447E-4 0.1068888888888889 0.0
4.4444444444444447E-4 0.10700000000000001 0.0
5.555555555555556E-4 0.0 0.0
5.555555555555556E-4 3.846153846153846E-4 0.0
5.555555555555556E-4 7.692307692307692E-4 0.0
5.555555555555556E-4 0.0011538461538461537 0.0
5.555555555555556E-4 0.0015384615384615385 0.0
5.555555555555556E-4 0.0019230769230769232 0.0
5.555555555555556E-4 0.0023076923076923075 0.0
5.555555555555556E-4 0.002692307692307692 0.0
5.555555555555556E-4 0.003076923076923077 0.0
5.555555555555556E-4 0.0034615384615384616 0.0
5.555555555555556E-4 0.0038461538461538464 0.0
5.555555555555556E-4 0.004230769230769231 0.0
5.555555555555556E-4 0.004615384615384615 0.0
5.555555555555556E-4 0.005 0.0
5.555555555555556E-4 0.005111111111111111 0.0
5.555555555555556E-4 0.005222222222222223 0.0
5.555555555555556E-4 0.005333333333333333 0.0
5.555555555555556E-4 0.0054444444444444445 0.0
5.555555555555556E-4 0.005555555555555556 0.0
5.555555555555556E-4 0.005666666666666667 0.0
5.555555555555556E-4 0.0057777777777777775 0.0
5.555555555555556E-4 0.005888888888888889 0.0
5.555555555555556E-4 0.006 0.0
5.555555555555556E-4 0.01711111111111111 0.0
5.555555555555556E-4 0.028222222222222225 0.0
5.555555555555556E-4 0.03933333333333333 0.0
5.555555555555556E-4 0.050444444444444445 0.0
5.555555555555556E-4 0.06155555555555556 0.0
[...]
POINT_DATA 1353
SCALARS Temperatura float 1
LOOKUP_TABLE default
45.637420653178815
45.49353148275401
45.34879291045484
45.203172440543774
45.05663329573854
44.90912688639921
44.76058859302712
44.610930924877714
44.46003155440873
44.30770842290562
44.15367912530965
43.997438149041294
43.83819149550653
43.673285875415736
43.50469360615579
43.338148844527154
43.17165711152762
43.00469617903965
42.836839719794334
42.667706040444465
42.496922790144644
42.324118398723236
42.14892285993655
21.892259797169995
21.67758256445536
21.7147451496555
21.705661342427568
21.70790992037777
21.70727033836228
21.707784866831798
21.70648263667288
21.570337066957794
21.56957522888029
21.568851219699308
21.56816991966952
21.567535886087743
21.566953173680968
21.566425204571406
21.56595468583249
21.565543564760045
21.56519300899536
45.63900968505041
45.49511405006756
45.35036796618854
45.204740362095116
45.058194490757856
44.910681958773836
44.76213838043763
44.61247680083198
44.46157549839355
44.30925544555556
44.15523223056807
43.99903267684655
43.839765329848824
43.675451984984825
43.50923389560295
43.34298626141923
43.17671253003295
43.009917591567046
42.842214134624676
42.67323096400238
42.50259891336594
42.32994534274
42.154896727967305
21.890736256045535
21.678498474220238
21.715028397687256
21.706109448092068
21.70831471249318
21.707687617668398
21.708194348073132
21.70691172681372
21.570705107892348
21.5699405673755
21.569213918910283
21.568530157345332
21.567893932239308
21.567309363556344
21.566779913354566
21.566308309213856
21.565896506675607
21.565545675592755
45.6407258126592
45.49682662925128
45.35207543485441
45.20644370542543
45.05989509904576
44.91238172890027
44.763839978702286
44.61418426354946
44.46329561806002
44.31100002119569
44.15702413537138
44.0009174015993
43.84181828233352
43.678291694256906
43.51333193527159
43.348070624385876
43.18243114997404
43.01618203897272
42.84899739218386
42.68053264232597
42.51042554199758
42.33829902368508
42.16376789940671
21.88538794395065
21.680561639051795
21.715176279437696
21.706756355136246
21.708830515291044
21.708241223135495
21.7087243206596
21.707501063442855
21.571167049296825
21.570394582098576
21.569660193584888
21.568969232648946
21.568326628258372
21.567736691721052
21.567202996524973
21.56672832271564
21.566314643183368
21.565963129791488
45.64257010148383
45.498669148845046
45.35391524547976
45.208282357512026
45.061734968639676
44.91422599051513
44.76569305702487
44.61605284396313
44.46519078427771
44.312941180372775
44.15904884741437
44.003093488411245
43.84431739296809
43.681634602384385
43.517794870203346
43.353581262715196
43.188882758553746
43.02350576117367
42.85718458829347
42.68960098096631
42.52039816072357
42.34918782124376
42.17556127234344
21.87620431197683
21.683776530931535
21.715187212397776
21.707602630564324
21.70945717998641
21.708931239820107
21.709374788394037
21.708250654881756
21.57172312643743
21.570937097157888
21.570189500565917
21.569486319035825
21.5688329603275
21.56823404125208
21.56769329346934
21.56721355529403
21.566796805431625
21.566444205011564
45.6445431124129
45.50064161997629
45.355887252075775
45.21025612710977
45.06371384396261
44.916214391890236
44.767697090418
44.61808168142402
44.46725946447487
44.31507625661192
44.16129999427704
44.00555482401267
43.84721135269028
43.68542768389195
43.52273649651255
43.35967442284005
43.19611756839321
43.03188893096532
42.866751322909025
42.7004072706356
42.532500537928776
42.36262105374883
42.190318645783805
21.863168102791448
21.688150503914613
21.7150585605579
21.708649197373973
21.710194442000972
21.70975779106124
21.710145742235383
21.709160488758933
21.572373735031167
21.57156775095043
21.570800818824136
21.570079912348092
21.56941113099435
21.56879947507365
21.568248825898472
21.567762034986416
21.56734103910679
21.566986955283312
45.64664511088968
45.50274402053988
45.35799125277516
45.212364741166915
45.0658313681808
44.91834644578023
44.76985135778855
44.62026959558229
44.469499625655246
44.31740137115146
44.16377039420242
44.00828721795823
43.850454766397526
43.68963015371355
43.52816607248004
43.36637270911653
43.20413342105727
43.0412910295779
42.877634721145995
42.71288700048449
42.546690531052334
42.37860114297266
42.20809995746794
21.846255003793488
21.69369389328719
21.714786605440825
21.709897343121177
21.71104191852375
21.710721038726142
21.71103716206739
21.710230524611237
21.573119458823605
21.57228587822154
21.57149244615135
21.570747623212917
21.570058400645223
21.569430141153823
21.568866756035675
21.568370982996413
21.567944618282706
21.56758867531751
45.648876165242754
45.50497625418252
45.360226986791986
45.214607846414395
45.068087086443214
44.92062153792237
44.77215495643021
44.622615130789704
44.47190874462503
44.319911811338464
44.16645138063951
44.01127212650509
43.85400683648205
43.69419784798596
43.534046204000155
43.37363291042298
43.21286440317508
43.05161519795327
42.88971245419855
42.72691432611984
42.562874585333866
42.39710805951458
42.2289854849994
21.825433035764053
21.700420188137272
21.714366496489383
21.711348734333907
21.711999104482572
21.711821183578806
21.712049019689747
21.711460681453875
21.573961115926988
21.573090239607286
21.572261587163823
21.571485810203782
21.57077085567634
21.570122157828962
21.569543353230713
21.56903682771006
21.568604083247045
21.56824594548659
45.65123619670389
45.50733813794296
45.3625941280146
45.21698501113844
45.0704804502213
44.9230389366372
44.77460682335118
44.62511659328458
44.47448389293896
44.32260221142169
44.16933289312677
44.014488887808504
43.857829084207424
43.699080320751364
43.54031172991357
43.381367778943435
43.22219083886444
43.06270119674709
42.90278335985808
42.74226262718636
42.58085914047356
42.41806365166371
42.25307976556389
21.800661473976014
21.708346331925373
21.713792166135043
21.71300544070346
21.71306536593723
21.713058465785874
21.713181283963152
21.71285081658916
21.574899837860894
21.573978336116614
21.573103455458607
21.572289033395016
21.57154313135263
21.570870525217813
21.57027400264526
21.569755260697733
21.56931531738054
21.56895471455102
45.653725007448664
45.50982940079808
45.36509228011263
45.21949572659144
45.07301082239156
44.92559780409206
44.77720575881638
44.62777209503585
44.47722183734772
44.32546670914299
44.17240386612904
44.01791591952315
43.86188405863831
43.704221510252644
43.54687862623182
43.38945857429117
43.23194886611314
43.07432769260118
42.91655665862912
42.75856661129979
42.60022375634121
42.44124937041681
42.28051890444649
21.771888853047617
21.7174932716114
21.71305617716904
21.71486997769449
21.714239928797426
21.71443316528088
21.714433931321807
21.714400683099864
21.57593722821546
21.574943517685256
21.5740099772012
21.57314934076829
21.572368235927
21.571669145954253
21.571053300062964
21.570521357284683
21.570073675766803
21.569710429956608
45.65634229823534
45.51244968627218
45.367720973748895
45.22213940828671
45.075677482817284
44.928297208688285
44.77995045143719
44.63057960343704
44.48011914250109
44.32849912601011
44.17565267827871
44.0215314048865
43.866134933478975
43.70956174642615
43.553651194749996
43.39776613007744
43.241943397604466
43.08622528031764
42.930661895520444
42.775314550711016
42.62026083939674
42.4656031899977
22.742941703881147
22.742941703881147
22.742941703881147
22.742941703881147
22.742941703881147
22.742941703881147
22.742941703881147
22.742941703881147
22.742941703881147
22.742941703881147
21.575973022797776
21.57496730415902
21.574056079193745
21.573237711634825
21.572511051207105
21.57187526884896
21.571329774642223
21.57087416971397
21.570508217619697
46.22188395894979
46.07922797725063
45.937986495862596
45.79817337024696
45.65981155054006
45.52293320473464
45.387579903617656
45.253802794727974
45.12166261818502
44.99122928027973
44.8625804236441
44.73579791523284
44.6109605368122
44.48813085257761
44.36735254644986
44.24681613748733
44.1265205403187
44.006463273144085
43.88663980775616
43.7670426601451
43.64766001148122
43.528473398819166
22.742941703881147
22.742941703881147
22.742941703881147
22.742941703881147
22.742941703881147
22.742941703881147
22.742941703881147
22.742941703881147
22.742941703881147
22.742941703881147
21.719873047799478
21.71829817390051
21.716886217034045
21.715637428538507
21.71455195197156
21.71362986752562
21.712871214195772
21.712276002785977
21.711844223651433
46.60576709101244
46.46291932905352
46.3209379751725
46.17981795229332
46.03955060071343
45.90012354719969
45.76152051694934
45.623721106316516
45.48670055392856
45.350429584851334
45.21487447813252
45.0799976503195
44.945759225656396
44.8121201603301
44.67982790032389
44.54765234196984
44.415591410576745
44.283643374242416
44.15180701748549
44.02008188499467
43.88846865210276
43.756969745854484
22.742941703881147
22.742941703881147
22.742941703881147
22.742941703881147
22.742941703881147
22.742941703881147
22.742941703881147
22.742941703881147
22.742941703881147
22.742941703881147
21.721055369096195
21.719795690964546
21.7186572886327
21.717640125404017
21.716744183579703
21.715969452535603
21.715315922774636
21.714783582441274
21.714372415249514
46.805372634580685
46.66254763625942
46.520554541616676
46.37939498514086
46.239071619498326
46.099588183489246
45.96094959941686
45.82316209605784
45.6862333483702
45.5501726152477
45.41499083616874
45.28070060871116
45.147315919355
45.01485147061968
44.883917008609274
44.753133747963176
44.62250276006504
44.492025034979854
44.361701435742475
44.23153263370656
44.10151900970994
43.97166048774828
22.742941703881147
22.742941703881147
22.742941703881147
22.742941703881147
22.742941703881147
22.742941703881147
22.742941703881147
22.742941703881147
22.742941703881147
22.742941703881147
21.721020881310515
21.71968031823074
21.718471891119812
21.717395560342176
21.71645128363746
21.71563901930552
21.71495872778928
21.714410372598785
21.713993920858638
46.917769024291715
46.774942528403216
46.63289797989008
46.49163507409973
46.35115317826146
46.21145130383042
46.07252806674754
45.93438163619638
45.79700967367009
45.660409266705585
45.52457686710521
45.38950825401138
45.25519855588944
45.12164237420184
44.98952691475655
44.857545580615486
44.72569791743186
44.59398348842867
44.46240188626554
44.33095275001853
44.199635791379166
44.06845083903163
22.742941703881147
22.742941703881147
22.742941703881147
22.742941703881147
22.742941703881147
22.742941703881147
22.742941703881147
22.742941703881147
22.742941703881147
22.742941703881147
21.7210209471869
21.719701485372937
21.71851127802066
21.717450306961027
21.716518553969134
21.715715999917272
21.715042624356983
21.714498405276636
21.714083318958686
46.97751692050676
46.834689515171895
46.69261779055328
46.55130197529045
46.410742353072465
46.2709392726614
46.131893162369835
45.993604549008836
45.85607408104223
45.719302555044536
45.58329094311861
45.4480404160834
45.31355235347551
45.17982832885673
45.047554818403846
44.91541760373878
44.78341683627526
44.65155266347368
44.519825225799565
44.3882346522966
44.256781053664014
44.12546451041739
22.742941703881147
22.742941703881147
22.742941703881147
22.742941703881147
22.742941703881147
22.742941703881147
22.742941703881147
22.742941703881147
22.742941703881147
22.742941703881147
21.72102270356827
21.719697712603647
21.718502744084816
21.717437768658712
21.716502757083997
21.715697680456113
21.71502251031723
21.71447721871935
21.71406177826118
47.00666141942799
46.86383426696864
46.721751248688584
46.58041246648407
46.43981798569708
46.29996783153374
46.160861983856826
46.02250037027696
45.88488285752433
45.748009241243594
45.61187923474775
45.4764924580714
45.34184842975233
45.2079465645489
45.075483881475535
44.94315529390457
44.81096074794262
44.67890019004294
44.546973567814156
44.41518083122719
44.28352193453884
44.151996839626385
22.742941703881147
22.742941703881147
22.742941703881147
22.742941703881147
22.742941703881147
22.742941703881147
22.742941703881147
22.742941703881147
22.742941703881147
22.742941703881147
21.721021696356036
21.719698181197547
21.71850447986089
21.717440567546728
21.71650641928105
21.7157020098522
21.715027313780624
21.71448230530174
21.714066958356103
47.01534171816871
46.87251437233502
46.730427209372365
46.58908037050673
46.44847399077782
46.30860820110719
46.16948313132292
46.031098914210176
45.89345569063926
45.75655361575292
45.62039286600783
45.48497364646957
45.35029619721475
45.21636079729014
45.08386515061602
44.95150376942908
44.81927668809899
44.687183940590984
44.55522556009075
44.423401578429655
44.29171202515032
44.16015692586443
22.742941703881147
22.742941703881147
22.742941703881147
22.742941703881147
22.742941703881147
22.742941703881147
22.742941703881147
22.742941703881147
22.742941703881147
22.742941703881147
21.721022122704273
21.71969812579888
21.718504012137444
21.71743975486389
21.716505327130328
21.71570070212798
21.715025853101775
21.71448075335859
21.714065376271872
47.00666141942793
46.86383426696856
46.72175124868848
46.58041246648392
46.439817985696855
46.2999678315334
46.1608619838564
46.02250037027649
45.884882857523806
45.748009241242976
45.61187923474701
45.47649245807051
45.3418484297513
45.20794656454771
45.07548388147419
44.94315529390308
44.810960747941024
44.678900190041226
44.546973567812344
44.41518083122532
44.28352193453694
44.15199683962445
22.742941703881147
22.742941703881147
22.742941703881147
22.742941703881147
22.742941703881147
22.742941703881147
22.742941703881147
22.742941703881147
22.742941703881147
22.742941703881147
21.721021696353947
21.719698181195454
21.718504479858797
21.71744056754463
21.716506419278943
21.715702009850077
21.715027313778492
21.714482305299605
21.714066958353975
46.97751692050877
46.83468951517391
46.6926177905553
46.5513019752925
46.41074235307457
46.270939272663554
46.13189316237201
45.99360454901099
45.85607408104435
45.71930255504667
45.58329094312079
45.44804041608563
45.313552353477796
45.1798283288591
45.04755481840631
44.915417603741325
44.78341683627787
44.651552663476394
44.51982522580232
44.38823465229939
44.256781053666785
44.12546451042015
22.742941703881147
22.742941703881147
22.742941703881147
22.742941703881147
22.742941703881147
22.742941703881147
22.742941703881147
22.742941703881147
22.742941703881147
22.742941703881147
21.72102270356173
21.71969771259708
21.718502744078215
21.717437768652072
21.716502757077322
21.715697680449413
21.715022510310504
21.71447721871261
21.71406177825444
46.91776902429495
46.77494252840647
46.63289797989338
46.491635074103044
46.35115317826477
46.211451303833655
46.072528066750756
45.93438163619958
45.79700967367326
45.66040926670866
45.524576867108145
45.38950825401415
45.25519855589205
45.12164237420428
44.989526914758855
44.85754558061768
44.725697917433976
44.59398348843073
44.46240188626756
44.33095275002051
44.19963579138112
44.06845083903355
22.742941703881147
22.742941703881147
22.742941703881147
22.742941703881147
22.742941703881147
22.742941703881147
22.742941703881147
22.742941703881147
22.742941703881147
22.742941703881147
21.721020947186403
21.719701485372443
21.71851127802017
21.71745030696055
21.71651855396867
21.715715999916828
21.715042624356542
21.714498405276192
21.714083318958238
46.80537263458822
46.66254763626695
46.520554541624186
46.379394985148345
46.23907161950578
46.099588183496685
45.96094959942427
45.82316209606523
45.68623334837759
45.55017261525511
45.41499083617618
45.28070060871863
45.14731591936249
45.01485147062718
44.883917008616756
44.753133747970665
44.622502760072486
44.492025034987215
44.36170143574979
44.23153263371381
44.1015190097171
43.97166048775537
22.742941703881147
22.742941703881147
22.742941703881147
22.742941703881147
22.742941703881147
22.742941703881147
22.742941703881147
22.742941703881147
22.742941703881147
22.742941703881147
21.72102088130953
21.719680318229752
21.71847189111882
21.71739556034118
21.71645128363646
21.71563901930451
21.714958727788265
21.714410372597772
21.713993920857632
46.605767091021846
46.46291932906294
46.32093797518197
46.17981795230284
46.03955060072301
45.90012354720933
45.761520516959045
45.62372110632627
45.486700553938356
45.35042958486117
45.214874478142384
45.07999765032941
44.94575922566638
44.81212016034018
44.679827900334075
44.54765234198012
44.41559141058713
44.283643374252904
44.15180701749604
44.020081885005276
43.888468652113396
43.75696974586512
22.742941703881147
22.742941703881147
22.742941703881147
22.742941703881147
22.742941703881147
22.742941703881147
22.742941703881147
22.742941703881147
22.742941703881147
22.742941703881147
21.721055369091907
21.719795690960225
21.718657288628357
21.71764012539965
21.716744183575326
21.715969452531226
21.715315922770262
21.71478358243692
21.714372415245162
46.22188395895197
46.07922797725282
45.93798649586479
45.79817337024917
45.65981155054227
45.522933204736816
45.38757990361978
45.25380279473006
45.121662618187095
44.9912292802818
44.862580423646186
44.735797915234926
44.61096053681428
44.48813085257969
44.367352546451905
44.24681613748936
44.12652054032069
44.006463273146004
43.88663980775806
43.76704266014697
43.647660011483026
43.528473398820935
22.742941703881147
22.742941703881147
22.742941703881147
22.742941703881147
22.742941703881147
22.742941703881147
22.742941703881147
22.742941703881147
22.742941703881147
22.742941703881147
21.7198730477999
21.718298173900934
21.716886217034467
21.715637428538937
21.714551951971984
21.713629867526024
21.712871214196152
21.71227600278634
21.71184422365179
45.65634229823544
45.51244968627228
45.36772097374897
45.222139408286765
45.07567748281732
44.92829720868835
44.77995045143732
44.63057960343723
44.48011914250134
44.328499126010385
44.175652678279015
44.021531404886844
43.866134933479344
43.70956174642652
43.55365119475041
43.39776613007791
43.241943397604985
43.08622528031825
42.930661895521084
42.7753145507117
42.62026083939746
42.46560318999844
22.742941703881147
22.742941703881147
22.742941703881147
22.742941703881147
22.742941703881147
22.742941703881147
22.742941703881147
22.742941703881147
22.742941703881147
22.742941703881147
21.575973022794454
21.574967304155727
21.574056079190484
21.573237711631574
21.572511051203875
21.571875268845744
21.57132977463904
21.570874169710798
21.570508217616524
45.6537250074488
45.5098294007982
45.36509228011268
45.219495726591504
45.073010822391616
44.92559780409213
44.777205758816564
44.62777209503605
44.47722183734799
44.32546670914328
44.172403866129365
44.01791591952354
43.861884058638715
43.70422151025309
43.546878626232285
43.38945857429169
43.2319488661137
43.07432769260177
42.91655665862973
42.75856661130044
42.6002237563419
42.44124937041754
42.28051890444723
21.771888853049877
21.71749327162053
21.71305617717242
21.71486997769773
21.714239928810162
21.714433165283783
21.714433931321356
21.71440068310042
21.57593722821212
21.574943517681916
21.57400997719788
21.573149340764996
21.572368235923722
21.571669145951
21.57105330005973
21.570521357281443
21.570073675763574
21.569710429953375
45.65123619670406
45.50733813794309
45.36259412801466
45.216985011138476
45.070480450221375
44.92303893663728
44.77460682335136
44.625116593284815
44.47448389293928
44.32260221142201
44.169332893127105
44.0144888878089
43.85782908420787
43.69908032075184
43.540311729914045
43.38136777894395
43.22219083886498
43.06270119674769
42.90278335985868
42.74226262718697
42.5808591404742
42.41806365166438
42.25307976556461
21.800661473978316
21.708346331934525
21.713792166138415
21.71300544070672
21.71306536595002
21.71305846578876
21.713181283962715
21.71285081658968
21.57489983785753
21.57397833611326
21.573103455455264
21.572289033391694
21.571543131349333
21.57087052521453
21.570274002641995
21.56975526069445
21.56931531737725
21.568954714547743
45.6488761652429
45.504976254182644
45.36022698679203
45.214607846414445
45.06808708644327
44.92062153792243
44.77215495643036
44.62261513079
44.471908744625345
44.31991181133884
44.166451380639806
44.01127212650552
43.85400683648252
43.694197847986466
43.53404620400067