# vtk DataFile Version 2.0
Niestacjonarne zagadnienie cieplne - ogrzewanie wody w garnku stalowym
ASCII
DATASET UNSTRUCTURED_GRID
POINTS 1353 float
0.0 0.0 0.0
0.0 3.846153846153846E-4 0.0
0.0 7.692307692307692E-4 0.0
0.0 0.0011538461538461537 0.0
0.0 0.0015384615384615385 0.0
0.0 0.0019230769230769232 0.0
0.0 0.0023076923076923075 0.0
0.0 0.002692307692307692 0.0
0.0 0.003076923076923077 0.0
0.0 0.0034615384615384616 0.0
0.0 0.0038461538461538464 0.0
0.0 0.004230769230769231 0.0
0.0 0.004615384615384615 0.0
0.0 0.005 0.0
0.0 0.005111111111111111 0.0
0.0 0.005222222222222223 0.0
0.0 0.005333333333333333 0.0
0.0 0.0054444444444444445 0.0
0.0 0.005555555555555556 0.0
0.0 0.005666666666666667 0.0
0.0 0.0057777777777777775 0.0
0.0 0.005888888888888889 0.0
0.0 0.006 0.0
0.0 0.01711111111111111 0.0
0.0 0.028222222222222225 0.0
0.0 0.03933333333333333 0.0
0.0 0.050444444444444445 0.0
0.0 0.06155555555555556 0.0
0.0 0.07266666666666667 0.0
0.0 0.08377777777777778 0.0
0.0 0.0948888888888889 0.0
0.0 0.10600000000000001 0.0
0.0 0.10611111111111113 0.0
0.0 0.10622222222222223 0.0
0.0 0.10633333333333335 0.0
0.0 0.10644444444444445 0.0
0.0 0.10655555555555557 0.0
0.0 0.10666666666666667 0.0
0.0 0.10677777777777779 0.0
0.0 0.1068888888888889 0.0
0.0 0.10700000000000001 0.0
1.1111111111111112E-4 0.0 0.0
1.1111111111111112E-4 3.846153846153846E-4 0.0
1.1111111111111112E-4 7.692307692307692E-4 0.0
1.1111111111111112E-4 0.0011538461538461537 0.0
1.1111111111111112E-4 0.0015384615384615385 0.0
1.1111111111111112E-4 0.0019230769230769232 0.0
1.1111111111111112E-4 0.0023076923076923075 0.0
1.1111111111111112E-4 0.002692307692307692 0.0
1.1111111111111112E-4 0.003076923076923077 0.0
1.1111111111111112E-4 0.0034615384615384616 0.0
1.1111111111111112E-4 0.0038461538461538464 0.0
1.1111111111111112E-4 0.004230769230769231 0.0
1.1111111111111112E-4 0.004615384615384615 0.0
1.1111111111111112E-4 0.005 0.0
1.1111111111111112E-4 0.005111111111111111 0.0
1.1111111111111112E-4 0.005222222222222223 0.0
1.1111111111111112E-4 0.005333333333333333 0.0
1.1111111111111112E-4 0.0054444444444444445 0.0
1.1111111111111112E-4 0.005555555555555556 0.0
1.1111111111111112E-4 0.005666666666666667 0.0
1.1111111111111112E-4 0.0057777777777777775 0.0
1.1111111111111112E-4 0.005888888888888889 0.0
1.1111111111111112E-4 0.006 0.0
1.1111111111111112E-4 0.01711111111111111 0.0
1.1111111111111112E-4 0.028222222222222225 0.0
1.1111111111111112E-4 0.03933333333333333 0.0
1.1111111111111112E-4 0.050444444444444445 0.0
1.1111111111111112E-4 0.06155555555555556 0.0
1.1111111111111112E-4 0.07266666666666667 0.0
1.1111111111111112E-4 0.08377777777777778 0.0
1.1111111111111112E-4 0.0948888888888889 0.0
1.1111111111111112E-4 0.10600000000000001 0.0
1.1111111111111112E-4 0.10611111111111113 0.0
1.1111111111111112E-4 0.10622222222222223 0.0
1.1111111111111112E-4 0.10633333333333335 0.0
1.1111111111111112E-4 0.10644444444444445 0.0
1.1111111111111112E-4 0.10655555555555557 0.0
1.1111111111111112E-4 0.10666666666666667 0.0
1.1111111111111112E-4 0.10677777777777779 0.0
1.1111111111111112E-4 0.1068888888888889 0.0
1.1111111111111112E-4 0.10700000000000001 0.0
2.2222222222222223E-4 0.0 0.0
2.2222222222222223E-4 3.846153846153846E-4 0.0
2.2222222222222223E-4 7.692307692307692E-4 0.0
2.2222222222222223E-4 0.0011538461538461537 0.0
2.2222222222222223E-4 0.0015384615384615385 0.0
2.2222222222222223E-4 0.0019230769230769232 0.0
2.2222222222222223E-4 0.0023076923076923075 0.0
2.2222222222222223E-4 0.002692307692307692 0.0
2.2222222222222223E-4 0.003076923076923077 0.0
2.2222222222222223E-4 0.0034615384615384616 0.0
2.2222222222222223E-4 0.0038461538461538464 0.0
2.2222222222222223E-4 0.004230769230769231 0.0
2.2222222222222223E-4 0.004615384615384615 0.0
2.2222222222222223E-4 0.005 0.0
2.2222222222222223E-4 0.005111111111111111 0.0
2.2222222222222223E-4 0.005222222222222223 0.0
2.2222222222222223E-4 0.005333333333333333 0.0
2.2222222222222223E-4 0.0054444444444444445 0.0
2.2222222222222223E-4 0.005555555555555556 0.0
2.2222222222222223E-4 0.005666666666666667 0.0
2.2222222222222223E-4 0.0057777777777777775 0.0
2.2222222222222223E-4 0.005888888888888889 0.0
2.2222222222222223E-4 0.006 0.0
2.2222222222222223E-4 0.01711111111111111 0.0
2.2222222222222223E-4 0.028222222222222225 0.0
2.2222222222222223E-4 0.03933333333333333 0.0
2.2222222222222223E-4 0.050444444444444445 0.0
2.2222222222222223E-4 0.06155555555555556 0.0
2.2222222222222223E-4 0.07266666666666667 0.0
2.2222222222222223E-4 0.08377777777777778 0.0
2.2222222222222223E-4 0.0948888888888889 0.0
2.2222222222222223E-4 0.10600000000000001 0.0
2.2222222222222223E-4 0.10611111111111113 0.0
2.2222222222222223E-4 0.10622222222222223 0.0
2.2222222222222223E-4 0.10633333333333335 0.0
2.2222222222222223E-4 0.10644444444444445 0.0
2.2222222222222223E-4 0.10655555555555557 0.0
2.2222222222222223E-4 0.10666666666666667 0.0
2.2222222222222223E-4 0.10677777777777779 0.0
2.2222222222222223E-4 0.1068888888888889 0.0
2.2222222222222223E-4 0.10700000000000001 0.0
3.333333333333334E-4 0.0 0.0
3.333333333333334E-4 3.846153846153846E-4 0.0
3.333333333333334E-4 7.692307692307692E-4 0.0
3.333333333333334E-4 0.0011538461538461537 0.0
3.333333333333334E-4 0.0015384615384615385 0.0
3.333333333333334E-4 0.0019230769230769232 0.0
3.333333333333334E-4 0.0023076923076923075 0.0
3.333333333333334E-4 0.002692307692307692 0.0
3.333333333333334E-4 0.003076923076923077 0.0
3.333333333333334E-4 0.0034615384615384616 0.0
3.333333333333334E-4 0.0038461538461538464 0.0
3.333333333333334E-4 0.004230769230769231 0.0
3.333333333333334E-4 0.004615384615384615 0.0
3.333333333333334E-4 0.005 0.0
3.333333333333334E-4 0.005111111111111111 0.0
3.333333333333334E-4 0.005222222222222223 0.0
3.333333333333334E-4 0.005333333333333333 0.0
3.333333333333334E-4 0.0054444444444444445 0.0
3.333333333333334E-4 0.005555555555555556 0.0
3.333333333333334E-4 0.005666666666666667 0.0
3.333333333333334E-4 0.0057777777777777775 0.0
3.333333333333334E-4 0.005888888888888889 0.0
3.333333333333334E-4 0.006 0.0
3.333333333333334E-4 0.01711111111111111 0.0
3.333333333333334E-4 0.028222222222222225 0.0
3.333333333333334E-4 0.03933333333333333 0.0
3.333333333333334E-4 0.050444444444444445 0.0
3.333333333333334E-4 0.06155555555555556 0.0
3.333333333333334E-4 0.07266666666666667 0.0
3.333333333333334E-4 0.08377777777777778 0.0
3.333333333333334E-4 0.0948888888888889 0.0
3.333333333333334E-4 0.10600000000000001 0.0
3.333333333333334E-4 0.10611111111111113 0.0
3.333333333333334E-4 0.10622222222222223 0.0
3.333333333333334E-4 0.10633333333333335 0.0
3.333333333333334E-4 0.10644444444444445 0.0
3.333333333333334E-4 0.10655555555555557 0.0
3.333333333333334E-4 0.10666666666666667 0.0
3.333333333333334E-4 0.10677777777777779 0.0
3.333333333333334E-4 0.1068888888888889 0.0
3.333333333333334E-4 0.10700000000000001 0.0
4.4444444444444447E-4 0.0 0.0
4.4444444444444447E-4 3.846153846153846E-4 0.0
4.4444444444444447E-4 7.692307692307692E-4 0.0
4.4444444444444447E-4 0.0011538461538461537 0.0
4.4444444444444447E-4 0.0015384615384615385 0.0
4.4444444444444447E-4 0.0019230769230769232 0.0
4.4444444444444447E-4 0.0023076923076923075 0.0
4.4444444444444447E-4 0.002692307692307692 0.0
4.4444444444444447E-4 0.003076923076923077 0.0
4.4444444444444447E-4 0.0034615384615384616 0.0
4.4444444444444447E-4 0.0038461538461538464 0.0
4.4444444444444447E-4 0.004230769230769231 0.0
4.4444444444444447E-4 0.004615384615384615 0.0
4.4444444444444447E-4 0.005 0.0
4.4444444444444447E-4 0.005111111111111111 0.0
4.4444444444444447E-4 0.005222222222222223 0.0
4.4444444444444447E-4 0.005333333333333333 0.0
4.4444444444444447E-4 0.0054444444444444445 0.0
4.4444444444444447E-4 0.005555555555555556 0.0
4.4444444444444447E-4 0.005666666666666667 0.0
4.4444444444444447E-4 0.0057777777777777775 0.0
4.4444444444444447E-4 0.005888888888888889 0.0
4.4444444444444447E-4 0.006 0.0
4.4444444444444447E-4 0.01711111111111111 0.0
4.4444444444444447E-4 0.028222222222222225 0.0
4.4444444444444447E-4 0.03933333333333333 0.0
4.4444444444444447E-4 0.050444444444444445 0.0
4.4444444444444447E-4 0.06155555555555556 0.0
4.4444444444444447E-4 0.07266666666666667 0.0
4.4444444444444447E-4 0.08377777777777778 0.0
4.4444444444444447E-4 0.0948888888888889 0.0
4.4444444444444447E-4 0.10600000000000001 0.0
4.4444444444444447E-4 0.10611111111111113 0.0
4.4444444444444447E-4 0.10622222222222223 0.0
4.4444444444444447E-4 0.10633333333333335 0.0
4.4444444444444447E-4 0.10644444444444445 0.0
4.4444444444444447E-4 0.10655555555555557 0.0
4.4444444444444447E-4 0.10666666666666667 0.0
4.4444444444444447E-4 0.10677777777777779 0.0
4.4444444444444447E-4 0.1068888888888889 0.0
4.4444444444444447E-4 0.10700000000000001 0.0
5.555555555555556E-4 0.0 0.0
5.555555555555556E-4 3.846153846153846E-4 0.0
5.555555555555556E-4 7.692307692307692E-4 0.0
5.555555555555556E-4 0.0011538461538461537 0.0
5.555555555555556E-4 0.0015384615384615385 0.0
5.555555555555556E-4 0.0019230769230769232 0.0
5.555555555555556E-4 0.0023076923076923075 0.0
5.555555555555556E-4 0.002692307692307692 0.0
5.555555555555556E-4 0.003076923076923077 0.0
5.555555555555556E-4 0.0034615384615384616 0.0
5.555555555555556E-4 0.0038461538461538464 0.0
5.555555555555556E-4 0.004230769230769231 0.0
5.555555555555556E-4 0.004615384615384615 0.0
5.555555555555556E-4 0.005 0.0
5.555555555555556E-4 0.005111111111111111 0.0
5.555555555555556E-4 0.005222222222222223 0.0
5.555555555555556E-4 0.005333333333333333 0.0
5.555555555555556E-4 0.0054444444444444445 0.0
5.555555555555556E-4 0.005555555555555556 0.0
5.555555555555556E-4 0.005666666666666667 0.0
5.555555555555556E-4 0.0057777777777777775 0.0
5.555555555555556E-4 0.005888888888888889 0.0
5.555555555555556E-4 0.006 0.0
5.555555555555556E-4 0.01711111111111111 0.0
5.555555555555556E-4 0.028222222222222225 0.0
5.555555555555556E-4 0.03933333333333333 0.0
5.555555555555556E-4 0.050444444444444445 0.0
5.555555555555556E-4 0.06155555555555556 0.0
[...]
POINT_DATA 1353
SCALARS Temperatura float 1
LOOKUP_TABLE default
99.7976681677074
99.66465224517077
99.5302125795837
99.39431046809376
99.25689825133776
99.11791055834165
98.97725769234184
98.83481384342649
98.69039632266055
98.54371892200564
98.3943270066932
98.24132839728655
98.08344416847578
97.9143270347101
97.73556498259747
97.56477655614744
97.39591410933295
97.22781457301787
97.05967741504988
96.89089828108723
96.72094912835574
96.54933920395588
96.37559963354794
76.63766801293198
76.43389162596746
76.46886441822222
76.46024557250688
76.46253940139977
76.46124861578583
76.46461090186232
76.44724056033182
75.08641937523277
75.07451851357918
75.06277150806503
75.05115216690159
75.03963585154652
75.0282005321359
75.01682755337006
75.00550212084761
74.99421356474025
74.98295545632884
99.80249664564788
99.66947499042269
99.53502867997872
99.3991204577399
99.26170273872843
99.12271044948618
98.9820542727902
98.83960945207116
98.69519394828528
98.5485289157388
98.39914792406539
98.24625518629661
98.08823052158547
97.9209187250699
97.74980535480465
97.57981588848624
97.41147186085557
97.24369582758615
97.07581433257897
96.9072593502995
96.73751884886856
96.56610793987666
96.39255868761178
76.64738592924127
76.44597176968752
76.48033124766168
76.47187293464476
76.47412226418663
76.4728531151777
76.47617099715795
76.45896315337995
75.09764036541212
75.0857505327809
75.07401443436459
75.06240520677004
75.0508976692685
75.03946940755503
75.02810153062414
75.01677912326794
75.0054914675633
74.99423212232169
99.80748345079714
99.67445914775594
99.54000909952089
99.40409866059363
99.2666807903629
99.1276911944933
98.98704188349241
98.84461049213607
98.70022004451378
98.55360037256922
98.4043061381902
98.25158580178072
98.09385830918895
97.92865755081576
97.76104607667263
97.59361702794723
97.42661212547809
97.25980975463787
97.09273342109337
96.92490700895432
96.7558573403968
96.58511351731964
96.41220814539598
76.6533709200035
76.45913247831
76.49163553183548
76.48366309945877
76.48577773071727
76.48457414679874
76.48775727370318
76.47104440586908
75.10877250598348
75.09692139394453
75.08522351506103
75.07364993015605
75.06217381452007
75.05077162394721
75.0394238082164
75.02811514267238
75.0168348088949
75.00557635585429
99.81262961029732
99.67960460598097
99.54515372239801
99.40924490877421
99.27183217561151
99.13285247672212
98.992219961228
98.84981625358445
98.70547232730858
98.55893271333952
98.40978686423429
98.2573335616949
98.10023754919987
97.93701023802512
97.77199077572537
97.60683409404653
97.44164107843976
97.27629249640329
97.11049791703539
96.94387170484681
96.77598418409379
96.60637720266153
96.43457683126472
76.65561151581234
76.47337841146813
76.50277563867846
76.49561664485252
76.49750560960204
76.4964118935462
76.49936942708582
76.48348509009612
75.11981399592882
75.10803170003071
75.09640150692982
75.0848907636312
75.07346982242615
75.0621133279867
75.05080079052837
75.03951664265377
75.02825003698786
75.01699459087945
99.81793562018204
99.68491130899685
99.55046232735994
99.41455891824123
99.27715651194401
99.13819374803457
98.9975876538634
98.85522528150246
98.71094810435716
98.56452143288745
98.41557716895956
98.26349390607649
98.1072288869196
97.945854161013
97.78309600409395
97.62009212834498
97.45685860656944
97.29329346307993
97.12917467469458
96.96418188577047
96.79791828556944
96.62992761356723
96.45971279902845
76.65408899652772
76.48871722284794
76.51374885914134
76.50773451551902
76.50930557022409
76.50836664683526
76.51100693882238
76.49628647104184
75.1307617488883
75.11908278340279
75.1075536098081
75.09613576270985
75.08479549473675
75.07350515321856
75.0622433520477
75.05099445340821
75.03974787240516
75.02849749683588
99.8234016548575
99.69037914046616
99.55593460738362
99.42004028724075
99.2826532672606
99.1437142531226
99.00314379591245
98.86083557632224
98.71664388445566
98.57035954770667
98.42166429710626
98.27004110526411
98.1147230822503
97.955129391857
97.7945106936218
97.63362765721156
97.47245922507405
97.31090982029586
97.14879500056031
96.98583622994082
96.82165821747331
96.65579038345008
96.48768415272872
76.64877715456655
76.50515963021564
76.52455138587229
76.52001802976531
76.52117713972088
76.52043881070786
76.52266906380338
76.50945035091443
75.14161123125038
75.1300773623541
75.11868862573567
75.10739783160253
75.09616584930629
75.0849627942077
75.07376708636316
75.06256380436011
75.05134322249039
75.04009985609268
99.82902766592947
99.69600788339059
99.56157016761846
99.42568849965099
99.2883217665707
99.1494130454509
99.00888693186585
98.86664469125647
98.72255531337011
98.57643865006574
98.42803305971694
98.27693977426222
98.12263548502816
97.9647853445875
97.8062667245588
97.64751527540382
97.48850374346497
97.32915425584682
97.16932075005008
97.0087700904224
96.84715211054272
96.68397032721867
96.51858076037075
76.63964181205536
76.52271955405311
76.53517827247084
76.5324688920467
76.53311969775076
76.53262890862752
76.53435480956766
76.52297914302632
75.15235619274611
75.14102097429587
75.1298212996647
75.11869689410048
75.10760257415964
75.09650769248054
75.08539249931223
75.07424423473267
75.06305495149259
75.05182029202618
99.83481343282594
99.70179720848144
99.56736852017893
99.43150292888313
99.29416120077374
99.15528900436657
99.01481535661038
98.8726497950971
98.72867733466535
98.58274926805416
98.4346656601828
98.28415132800002
98.13089680615012
97.97476845767635
97.8183389405337
97.66173920410789
97.50495719242117
97.34794850485913
97.19062100803589
97.03281229980158
96.87424632864487
96.71441424228244
96.55251767122769
76.62663987410772
76.5414143833014
76.54562335757106
76.54508921553712
76.5451324675253
76.54493759469372
76.5460629020148
76.53687599475573
75.16298821620803
75.15192545006948
75.14097703584208
75.13006378907754
75.11913565954679
75.1081675412972
75.09714493985742
75.08605925080151
75.07490541763615
75.06368077250775
99.8407585915351
99.70774667355096
99.57332908061171
99.43748284179476
99.30017063659497
99.16134085567097
99.02092715884233
98.87884774837713
98.73500438482603
98.58928111137016
98.44154243626963
98.2916368707138
98.1394467359966
97.98502042221156
97.83066895277707
97.67622834154807
97.52171567352373
97.36713376502148
97.21246288840894
97.05764676184567
96.9025597271398
96.74692635195386
96.5896419592402
76.60971745562554
76.56126549247058
76.55587912032397
76.5578815639092
76.55721449993082
76.55736567277424
76.55779172678189
76.5511449990602
75.1734959398618
75.16281540064956
75.15220621269889
75.14154388539289
75.13080431808916
75.11997609588327
75.10905401180048
75.0980355992714
75.08691970426676
75.07570583242317
99.84686265301018
99.71385572705081
99.57945116659508
99.4436274027204
99.30634902740063
99.16756719439506
99.02722026655786
98.88523519282415
98.74153058398981
98.59602337133313
98.44864275481785
98.2993582883283
98.14823019268003
97.99547954099432
97.84317933915196
97.69087860443892
97.53863006993106
97.3864909665172
97.23452509351088
97.08280600142076
96.93142205863904
96.780485100894
79.26985308416997
79.26985308416997
79.26985308416997
79.26985308416997
79.26985308416997
79.26985308416997
79.26985308416997
79.26985308416997
79.26985308416997
79.26985308416997
75.17381589300057
75.16358832114678
75.15319759911432
75.14265576953436
75.13197177516615
75.12115226958181
75.11020208694173
75.09912452333698
75.08792150597918
100.79968567308295
100.66834622790586
100.53856496575743
100.41036010839008
100.28376189117891
100.15881271324002
100.03556732438706
99.91409291959155
99.79446887931931
99.67678564311241
99.56114170219786
99.44763682792258
99.33635926847519
99.22736737147869
99.12045680034777
99.01378833625051
98.9073593577354
98.80116610829691
98.69520313079686
98.58946240190261
98.48393195875121
98.37859356102535
79.26985308416997
79.26985308416997
79.26985308416997
79.26985308416997
79.26985308416997
79.26985308416997
79.26985308416997
79.26985308416997
79.26985308416997
79.26985308416997
76.59755172991326
76.58303982494992
76.56893205841806
76.55522396499413
76.5419120956383
76.5289937970078
76.5164670830343
76.504330557659
76.49258336819726
101.42690100974738
101.29530508282392
101.16448751591562
101.0344414665296
100.90515531611173
100.77661250008815
100.64879127430045
100.52166445061277
100.39519916993434
100.26935684916931
100.14409357600044
100.01936146511969
99.89511160589655
99.77129852109742
99.6486593684374
99.52610260448178
99.4036257929107
99.28122676277006
99.158903759453
99.03665567656228
98.91448242460102
98.79238555932905
79.26985308416997
79.26985308416997
79.26985308416997
79.26985308416997
79.26985308416997
79.26985308416997
79.26985308416997
79.26985308416997
79.26985308416997
79.26985308416997
76.6155622211031
76.60385725648102
76.59216799234049
76.58049616351508
76.56884314324434
76.5572100035813
76.54559755081276
76.53400634692112
76.52243672261308
101.75811333778564
101.6265470645461
101.49568491959853
101.36552897215137
101.23608263164995
101.10735073691288
100.97933968099997
100.8520575642716
100.72551435882302
100.5997220491578
100.47469467659978
100.35044814912888
100.2269996437824
100.10436661396193
99.98312435719457
99.86200482852954
99.74100932291103
99.62013907740481
99.49939523176853
99.37877876722939
99.25829040840595
99.13793045534271
79.26985308416997
79.26985308416997
79.26985308416997
79.26985308416997
79.26985308416997
79.26985308416997
79.26985308416997
79.26985308416997
79.26985308416997
79.26985308416997
76.61543330712794
76.60301715854749
76.59071683632119
76.57853170824943
76.56646126195865
76.55450508822769
76.54266287111342
76.53093438190939
76.51931947544999
101.94459158968962
101.81302339383514
101.68207778466319
101.55175427152587
101.42205192762134
101.29296935361928
101.16450462615843
101.03665523267013
100.90941799632874
100.78278899976395
100.65676352624001
100.53133605497469
100.4065003573329
100.28224969228482
100.15926872526083
100.03638741332048
99.91360517805059
99.79092145137855
99.66833568564856
99.54584736956625
99.42345605406817
99.30116139700085
79.26985308416997
79.26985308416997
79.26985308416997
79.26985308416997
79.26985308416997
79.26985308416997
79.26985308416997
79.26985308416997
79.26985308416997
79.26985308416997
76.6154344882328
76.60320412635721
76.59106298247644
76.57901123942725
76.56704904176199
76.55517650038446
76.54339369532866
76.53170067747863
76.52009746962995
102.04427281545885
101.9127033008655
101.7817128877383
101.6513017929193
101.52147030680959
101.39221880656325
101.2635477749382
101.13545782463633
101.00794972739548
100.88102444584379
100.75468316343097
100.62892730285995
100.50375852055139
100.3791786773723
100.25587659943685
100.13267605888333
100.00957723943831
99.88658032321752
99.76368548820801
99.64089290416477
99.5182027258247
99.39561508103777
79.26985308416997
79.26985308416997
79.26985308416997
79.26985308416997
79.26985308416997
79.26985308416997
79.26985308416997
79.26985308416997
79.26985308416997
79.26985308416997
76.61545141566826
76.60317236007816
76.5909896165132
76.57890310169613
76.56691274422474
76.55501848326831
76.54322026777558
76.53151805597794
76.51991181508002
102.09303194609446
101.96146274801926
101.83045313624021
101.70000316273536
101.57011283424305
101.44078210754782
101.31201088268487
101.18379899401884
101.05614619928718
100.92905216703153
100.80251646359346
100.676538542252
100.5511177379471
100.42625326748721
100.30265005310979
100.17914517596277
100.0557385639028
99.93243014447917
99.80921984557502
99.68610759650305
99.56309332987006
99.44017698489874
79.26985308416997
79.26985308416997
79.26985308416997
79.26985308416997
79.26985308416997
79.26985308416997
79.26985308416997
79.26985308416997
79.26985308416997
79.26985308416997
76.61544286056919
76.60317680579429
76.59100513546866
76.5789278520429
76.56694495398789
76.55505643618785
76.54326229018298
76.5315625043238
76.51995706386855
102.10758621132013
101.97601674551967
101.84500034936686
101.71453712690771
101.58462717734038
101.45527059773349
101.3264674869726
101.19821795099773
101.07052210934171
100.94338010282534
100.81679210189785
100.69075831441435
100.565278991197
100.44035442947259
100.31669119947203
100.1931263938394
100.06966005242111
99.94629221519274
99.82302292197458
99.69985221191992
99.57678012261789
99.4538066884662
79.26985308416997
79.26985308416997
79.26985308416997
79.26985308416997
79.26985308416997
79.26985308416997
79.26985308416997
79.26985308416997
79.26985308416997
79.26985308416997
76.61544674249623
76.6031764427051
76.59100116883783
76.57892089005553
76.56693557761437
76.55504520466042
76.54324974610101
76.53154917852251
76.5199434801377
102.09303194609419
101.96146274801895
101.83045313623985
101.70000316273492
101.57011283424244
101.44078210754697
101.31201088268384
101.1837989940177
101.05614619928592
100.92905216703005
100.80251646359167
100.67653854224989
100.55111773794467
100.42625326748443
100.30265005310665
100.1791451759593
100.0557385638991
99.93243014447522
99.80921984557082
99.6861075964987
99.56309332986564
99.44017698489425
79.26985308416997
79.26985308416997
79.26985308416997
79.26985308416997
79.26985308416997
79.26985308416997
79.26985308416997
79.26985308416997
79.26985308416997
79.26985308416997
76.61544286056173
76.60317680578683
76.5910051354612
76.5789278520354
76.56694495398038
76.55505643618031
76.54326229017539
76.53156250431621
76.51995706386094
102.0442728154634
101.91270330087005
101.78171288774287
101.65130179292395
101.52147030681432
101.3922188065681
101.26354777494308
101.13545782464115
101.00794972740026
100.8810244458486
100.75468316343587
100.628927302865
100.50375852055657
100.3791786773777
100.25587659944244
100.13267605888906
100.00957723944421
99.88658032322363
99.76368548821424
99.64089290417105
99.51820272583096
99.39561508104401
79.26985308416997
79.26985308416997
79.26985308416997
79.26985308416997
79.26985308416997
79.26985308416997
79.26985308416997
79.26985308416997
79.26985308416997
79.26985308416997
76.61545141564525
76.60317236005504
76.59098961648995
76.57890310167275
76.56691274420122
76.5550184832447
76.54322026775189
76.53151805595422
76.5199118150563
101.94459158969687
101.81302339384244
101.68207778467058
101.55175427153331
101.42205192762873
101.29296935362655
101.16450462616567
101.03665523267733
100.90941799633586
100.78278899977087
100.65676352624665
100.53133605498097
100.40650035733879
100.28224969229032
100.15926872526602
100.03638741332543
99.91360517805539
99.79092145138321
99.66833568565312
99.5458473695707
99.4234560540726
99.30116139700525
79.26985308416997
79.26985308416997
79.26985308416997
79.26985308416997
79.26985308416997
79.26985308416997
79.26985308416997
79.26985308416997
79.26985308416997
79.26985308416997
76.61543448823114
76.60320412635558
76.59106298247482
76.57901123942567
76.56704904176046
76.555176500383
76.54339369532723
76.53170067747718
76.52009746962851
101.75811333780261
101.62654706456304
101.49568491961541
101.3655289721682
101.23608263166675
101.10735073692962
100.97933968101664
100.85205756428823
100.72551435883966
100.59972204917449
100.47469467661654
100.35044814914569
100.22699964379926
100.10436661397878
99.9831243572114
99.86200482854636
99.74100932292774
99.62013907742134
99.49939523178494
99.37877876724569
99.25829040842204
99.13793045535864
79.26985308416997
79.26985308416997
79.26985308416997
79.26985308416997
79.26985308416997
79.26985308416997
79.26985308416997
79.26985308416997
79.26985308416997
79.26985308416997
76.61543330712432
76.60301715854382
76.5907168363175
76.57853170824572
76.56646126195496
76.55450508822396
76.5426628711097
76.5309343819057
76.51931947544631
101.42690100976861
101.29530508284518
101.16448751593697
101.03444146655106
100.90515531613333
100.77661250010988
100.64879127432232
100.52166445063474
100.39519916995641
100.26935684919147
100.14409357602267
100.01936146514203
99.89511160591906
99.77129852112014
99.64865936846036
99.52610260450496
99.40362579293408
99.2812267627937
99.15890375947679
99.03665567658616
98.91448242462499
98.79238555935304
79.26985308416997
79.26985308416997
79.26985308416997
79.26985308416997
79.26985308416997
79.26985308416997
79.26985308416997
79.26985308416997
79.26985308416997
79.26985308416997
76.61556222108793
76.60385725646577
76.59216799232517
76.58049616349969
76.5688431432289
76.55721000356588
76.54559755079737
76.53400634690578
76.52243672259776
100.79968567308825
100.66834622791117
100.53856496576276
100.41036010839545
100.28376189118427
100.15881271324533
100.03556732439229
99.9140929195967
99.79446887932443
99.67678564311753
99.56114170220302
99.44763682792775
99.33635926848035
99.22736737148384
99.12045680035285
99.01378833625554
98.90735935774039
98.80116610830173
98.69520313080164
98.58946240190737
98.48393195875583
98.37859356102989
79.26985308416997
79.26985308416997
79.26985308416997
79.26985308416997
79.26985308416997
79.26985308416997
79.26985308416997
79.26985308416997
79.26985308416997
79.26985308416997
76.59755172991456
76.5830398249512
76.56893205841934
76.55522396499542
76.54191209563955
76.52899379700898
76.51646708303541
76.50433055766004
76.49258336819827
99.8468626530107
99.71385572705134
99.57945116659556
99.44362740272084
99.30634902740104
99.16756719439549
99.02722026655837
98.88523519282477
98.74153058399052
98.59602337133394
98.44864275481872
98.29935828832927
98.14823019268105
97.99547954099535
97.84317933915304
97.69087860444012
97.53863006993232
97.38649096651865
97.23452509351235
97.08280600142227
96.9314220586406
96.78048510089559
79.26985308416997
79.26985308416997
79.26985308416997
79.26985308416997
79.26985308416997
79.26985308416997
79.26985308416997
79.26985308416997
79.26985308416997
79.26985308416997
75.17381589298923
75.16358832113552
75.15319759910314
75.14265576952319
75.13197177515504
75.12115226957076
75.11020208693074
75.09912452332604
75.08792150596823
99.84075859153572
99.70774667355144
99.57332908061218
99.43748284179522
99.30017063659544
99.16134085567136
99.02092715884285
98.8788477483779
98.73500438482681
98.58928111137094
98.44154243627051
98.29163687071498
98.13944673599775
97.98502042221276
97.83066895277825
97.67622834154925
97.52171567352504
97.36713376502281
97.21246288841037
97.05764676184711
96.90255972714131
96.7469263519554
96.5896419592417
76.6097174556346
76.56126549250281
76.55587912033594
76.55788156392065
76.55721449997594
76.55736567278457
76.55779172678045
76.55114499906195
75.17349593985041
75.16281540063822
75.15220621268749
75.1415438853816
75.1308043180779
75.11997609587209
75.1090540117893
75.09803559926024
75.08691970425562
75.07570583241207
99.83481343282665
99.70179720848188
99.56736852017949
99.4315029288835
99.29416120077425
99.155289004367
99.01481535661101
98.8726497950979
98.72867733466624
98.5827492680551
98.43466566018367
98.28415132800127
98.13089680615143
97.97476845767756
97.81833894053494
97.6617392041092
97.50495719242247
97.34794850486047
97.19062100803724
97.03281229980293
96.87424632864628
96.71441424228382
96.55251767122903
76.62663987411696
76.54141438333373
76.54562335758307
76.54508921554863
76.54513246757067
76.544937594704
76.54606290201343
76.53687599475744
75.16298821619652
75.15192545005802
75.14097703583067
75.13006378906614
75.11913565953542
75.10816754128587
75.09714493984616
75.0860592507902
75.07490541762486
75.0636807724965
99.82902766593007
99.69600788339116
99.56157016761894
99.42568849965133
99.28832176657123
99.14941304545131
99.00888693186647
98.86664469125735
98.72255531337113
98.57643865006673
98.42803305971782
98.27693977426348
98.12263548502943
97.96478534458876
97.80626672456009
97.64751527540513
97.48850374346625
97.32915425584811
97.1693207500514
97.00877009042374
96.8471521105441
96.68397032722004
96.51858076037202
76.63964181206481
76.52271955408573
76.53517827248292
76.53246889205836
76.53311969779622
76.53262890863786
76.53435480956627
76.52297914302802
75.15235619273454
75.14102097428432
75.12982129965316
75.11869689408898
75.10760257414817
75.09650769246915
75.08539249930084
75.07424423472128
75.0630549514812