# vtk DataFile Version 2.0
Niestacjonarne zagadnienie cieplne - ogrzewanie wody w garnku stalowym
ASCII
DATASET UNSTRUCTURED_GRID
POINTS 1353 float
0.0 0.0 0.0
0.0 3.846153846153846E-4 0.0
0.0 7.692307692307692E-4 0.0
0.0 0.0011538461538461537 0.0
0.0 0.0015384615384615385 0.0
0.0 0.0019230769230769232 0.0
0.0 0.0023076923076923075 0.0
0.0 0.002692307692307692 0.0
0.0 0.003076923076923077 0.0
0.0 0.0034615384615384616 0.0
0.0 0.0038461538461538464 0.0
0.0 0.004230769230769231 0.0
0.0 0.004615384615384615 0.0
0.0 0.005 0.0
0.0 0.005111111111111111 0.0
0.0 0.005222222222222223 0.0
0.0 0.005333333333333333 0.0
0.0 0.0054444444444444445 0.0
0.0 0.005555555555555556 0.0
0.0 0.005666666666666667 0.0
0.0 0.0057777777777777775 0.0
0.0 0.005888888888888889 0.0
0.0 0.006 0.0
0.0 0.01711111111111111 0.0
0.0 0.028222222222222225 0.0
0.0 0.03933333333333333 0.0
0.0 0.050444444444444445 0.0
0.0 0.06155555555555556 0.0
0.0 0.07266666666666667 0.0
0.0 0.08377777777777778 0.0
0.0 0.0948888888888889 0.0
0.0 0.10600000000000001 0.0
0.0 0.10611111111111113 0.0
0.0 0.10622222222222223 0.0
0.0 0.10633333333333335 0.0
0.0 0.10644444444444445 0.0
0.0 0.10655555555555557 0.0
0.0 0.10666666666666667 0.0
0.0 0.10677777777777779 0.0
0.0 0.1068888888888889 0.0
0.0 0.10700000000000001 0.0
1.1111111111111112E-4 0.0 0.0
1.1111111111111112E-4 3.846153846153846E-4 0.0
1.1111111111111112E-4 7.692307692307692E-4 0.0
1.1111111111111112E-4 0.0011538461538461537 0.0
1.1111111111111112E-4 0.0015384615384615385 0.0
1.1111111111111112E-4 0.0019230769230769232 0.0
1.1111111111111112E-4 0.0023076923076923075 0.0
1.1111111111111112E-4 0.002692307692307692 0.0
1.1111111111111112E-4 0.003076923076923077 0.0
1.1111111111111112E-4 0.0034615384615384616 0.0
1.1111111111111112E-4 0.0038461538461538464 0.0
1.1111111111111112E-4 0.004230769230769231 0.0
1.1111111111111112E-4 0.004615384615384615 0.0
1.1111111111111112E-4 0.005 0.0
1.1111111111111112E-4 0.005111111111111111 0.0
1.1111111111111112E-4 0.005222222222222223 0.0
1.1111111111111112E-4 0.005333333333333333 0.0
1.1111111111111112E-4 0.0054444444444444445 0.0
1.1111111111111112E-4 0.005555555555555556 0.0
1.1111111111111112E-4 0.005666666666666667 0.0
1.1111111111111112E-4 0.0057777777777777775 0.0
1.1111111111111112E-4 0.005888888888888889 0.0
1.1111111111111112E-4 0.006 0.0
1.1111111111111112E-4 0.01711111111111111 0.0
1.1111111111111112E-4 0.028222222222222225 0.0
1.1111111111111112E-4 0.03933333333333333 0.0
1.1111111111111112E-4 0.050444444444444445 0.0
1.1111111111111112E-4 0.06155555555555556 0.0
1.1111111111111112E-4 0.07266666666666667 0.0
1.1111111111111112E-4 0.08377777777777778 0.0
1.1111111111111112E-4 0.0948888888888889 0.0
1.1111111111111112E-4 0.10600000000000001 0.0
1.1111111111111112E-4 0.10611111111111113 0.0
1.1111111111111112E-4 0.10622222222222223 0.0
1.1111111111111112E-4 0.10633333333333335 0.0
1.1111111111111112E-4 0.10644444444444445 0.0
1.1111111111111112E-4 0.10655555555555557 0.0
1.1111111111111112E-4 0.10666666666666667 0.0
1.1111111111111112E-4 0.10677777777777779 0.0
1.1111111111111112E-4 0.1068888888888889 0.0
1.1111111111111112E-4 0.10700000000000001 0.0
2.2222222222222223E-4 0.0 0.0
2.2222222222222223E-4 3.846153846153846E-4 0.0
2.2222222222222223E-4 7.692307692307692E-4 0.0
2.2222222222222223E-4 0.0011538461538461537 0.0
2.2222222222222223E-4 0.0015384615384615385 0.0
2.2222222222222223E-4 0.0019230769230769232 0.0
2.2222222222222223E-4 0.0023076923076923075 0.0
2.2222222222222223E-4 0.002692307692307692 0.0
2.2222222222222223E-4 0.003076923076923077 0.0
2.2222222222222223E-4 0.0034615384615384616 0.0
2.2222222222222223E-4 0.0038461538461538464 0.0
2.2222222222222223E-4 0.004230769230769231 0.0
2.2222222222222223E-4 0.004615384615384615 0.0
2.2222222222222223E-4 0.005 0.0
2.2222222222222223E-4 0.005111111111111111 0.0
2.2222222222222223E-4 0.005222222222222223 0.0
2.2222222222222223E-4 0.005333333333333333 0.0
2.2222222222222223E-4 0.0054444444444444445 0.0
2.2222222222222223E-4 0.005555555555555556 0.0
2.2222222222222223E-4 0.005666666666666667 0.0
2.2222222222222223E-4 0.0057777777777777775 0.0
2.2222222222222223E-4 0.005888888888888889 0.0
2.2222222222222223E-4 0.006 0.0
2.2222222222222223E-4 0.01711111111111111 0.0
2.2222222222222223E-4 0.028222222222222225 0.0
2.2222222222222223E-4 0.03933333333333333 0.0
2.2222222222222223E-4 0.050444444444444445 0.0
2.2222222222222223E-4 0.06155555555555556 0.0
2.2222222222222223E-4 0.07266666666666667 0.0
2.2222222222222223E-4 0.08377777777777778 0.0
2.2222222222222223E-4 0.0948888888888889 0.0
2.2222222222222223E-4 0.10600000000000001 0.0
2.2222222222222223E-4 0.10611111111111113 0.0
2.2222222222222223E-4 0.10622222222222223 0.0
2.2222222222222223E-4 0.10633333333333335 0.0
2.2222222222222223E-4 0.10644444444444445 0.0
2.2222222222222223E-4 0.10655555555555557 0.0
2.2222222222222223E-4 0.10666666666666667 0.0
2.2222222222222223E-4 0.10677777777777779 0.0
2.2222222222222223E-4 0.1068888888888889 0.0
2.2222222222222223E-4 0.10700000000000001 0.0
3.333333333333334E-4 0.0 0.0
3.333333333333334E-4 3.846153846153846E-4 0.0
3.333333333333334E-4 7.692307692307692E-4 0.0
3.333333333333334E-4 0.0011538461538461537 0.0
3.333333333333334E-4 0.0015384615384615385 0.0
3.333333333333334E-4 0.0019230769230769232 0.0
3.333333333333334E-4 0.0023076923076923075 0.0
3.333333333333334E-4 0.002692307692307692 0.0
3.333333333333334E-4 0.003076923076923077 0.0
3.333333333333334E-4 0.0034615384615384616 0.0
3.333333333333334E-4 0.0038461538461538464 0.0
3.333333333333334E-4 0.004230769230769231 0.0
3.333333333333334E-4 0.004615384615384615 0.0
3.333333333333334E-4 0.005 0.0
3.333333333333334E-4 0.005111111111111111 0.0
3.333333333333334E-4 0.005222222222222223 0.0
3.333333333333334E-4 0.005333333333333333 0.0
3.333333333333334E-4 0.0054444444444444445 0.0
3.333333333333334E-4 0.005555555555555556 0.0
3.333333333333334E-4 0.005666666666666667 0.0
3.333333333333334E-4 0.0057777777777777775 0.0
3.333333333333334E-4 0.005888888888888889 0.0
3.333333333333334E-4 0.006 0.0
3.333333333333334E-4 0.01711111111111111 0.0
3.333333333333334E-4 0.028222222222222225 0.0
3.333333333333334E-4 0.03933333333333333 0.0
3.333333333333334E-4 0.050444444444444445 0.0
3.333333333333334E-4 0.06155555555555556 0.0
3.333333333333334E-4 0.07266666666666667 0.0
3.333333333333334E-4 0.08377777777777778 0.0
3.333333333333334E-4 0.0948888888888889 0.0
3.333333333333334E-4 0.10600000000000001 0.0
3.333333333333334E-4 0.10611111111111113 0.0
3.333333333333334E-4 0.10622222222222223 0.0
3.333333333333334E-4 0.10633333333333335 0.0
3.333333333333334E-4 0.10644444444444445 0.0
3.333333333333334E-4 0.10655555555555557 0.0
3.333333333333334E-4 0.10666666666666667 0.0
3.333333333333334E-4 0.10677777777777779 0.0
3.333333333333334E-4 0.1068888888888889 0.0
3.333333333333334E-4 0.10700000000000001 0.0
4.4444444444444447E-4 0.0 0.0
4.4444444444444447E-4 3.846153846153846E-4 0.0
4.4444444444444447E-4 7.692307692307692E-4 0.0
4.4444444444444447E-4 0.0011538461538461537 0.0
4.4444444444444447E-4 0.0015384615384615385 0.0
4.4444444444444447E-4 0.0019230769230769232 0.0
4.4444444444444447E-4 0.0023076923076923075 0.0
4.4444444444444447E-4 0.002692307692307692 0.0
4.4444444444444447E-4 0.003076923076923077 0.0
4.4444444444444447E-4 0.0034615384615384616 0.0
4.4444444444444447E-4 0.0038461538461538464 0.0
4.4444444444444447E-4 0.004230769230769231 0.0
4.4444444444444447E-4 0.004615384615384615 0.0
4.4444444444444447E-4 0.005 0.0
4.4444444444444447E-4 0.005111111111111111 0.0
4.4444444444444447E-4 0.005222222222222223 0.0
4.4444444444444447E-4 0.005333333333333333 0.0
4.4444444444444447E-4 0.0054444444444444445 0.0
4.4444444444444447E-4 0.005555555555555556 0.0
4.4444444444444447E-4 0.005666666666666667 0.0
4.4444444444444447E-4 0.0057777777777777775 0.0
4.4444444444444447E-4 0.005888888888888889 0.0
4.4444444444444447E-4 0.006 0.0
4.4444444444444447E-4 0.01711111111111111 0.0
4.4444444444444447E-4 0.028222222222222225 0.0
4.4444444444444447E-4 0.03933333333333333 0.0
4.4444444444444447E-4 0.050444444444444445 0.0
4.4444444444444447E-4 0.06155555555555556 0.0
4.4444444444444447E-4 0.07266666666666667 0.0
4.4444444444444447E-4 0.08377777777777778 0.0
4.4444444444444447E-4 0.0948888888888889 0.0
4.4444444444444447E-4 0.10600000000000001 0.0
4.4444444444444447E-4 0.10611111111111113 0.0
4.4444444444444447E-4 0.10622222222222223 0.0
4.4444444444444447E-4 0.10633333333333335 0.0
4.4444444444444447E-4 0.10644444444444445 0.0
4.4444444444444447E-4 0.10655555555555557 0.0
4.4444444444444447E-4 0.10666666666666667 0.0
4.4444444444444447E-4 0.10677777777777779 0.0
4.4444444444444447E-4 0.1068888888888889 0.0
4.4444444444444447E-4 0.10700000000000001 0.0
5.555555555555556E-4 0.0 0.0
5.555555555555556E-4 3.846153846153846E-4 0.0
5.555555555555556E-4 7.692307692307692E-4 0.0
5.555555555555556E-4 0.0011538461538461537 0.0
5.555555555555556E-4 0.0015384615384615385 0.0
5.555555555555556E-4 0.0019230769230769232 0.0
5.555555555555556E-4 0.0023076923076923075 0.0
5.555555555555556E-4 0.002692307692307692 0.0
5.555555555555556E-4 0.003076923076923077 0.0
5.555555555555556E-4 0.0034615384615384616 0.0
5.555555555555556E-4 0.0038461538461538464 0.0
5.555555555555556E-4 0.004230769230769231 0.0
5.555555555555556E-4 0.004615384615384615 0.0
5.555555555555556E-4 0.005 0.0
5.555555555555556E-4 0.005111111111111111 0.0
5.555555555555556E-4 0.005222222222222223 0.0
5.555555555555556E-4 0.005333333333333333 0.0
5.555555555555556E-4 0.0054444444444444445 0.0
5.555555555555556E-4 0.005555555555555556 0.0
5.555555555555556E-4 0.005666666666666667 0.0
5.555555555555556E-4 0.0057777777777777775 0.0
5.555555555555556E-4 0.005888888888888889 0.0
5.555555555555556E-4 0.006 0.0
5.555555555555556E-4 0.01711111111111111 0.0
5.555555555555556E-4 0.028222222222222225 0.0
5.555555555555556E-4 0.03933333333333333 0.0
5.555555555555556E-4 0.050444444444444445 0.0
5.555555555555556E-4 0.06155555555555556 0.0
[...]
POINT_DATA 1353
SCALARS Temperatura float 1
LOOKUP_TABLE default
62.03226547165949
61.891664585481784
61.75003412561943
61.607339714787436
61.46354127792404
61.31858514037208
61.1723990841094
61.0248840077031
60.87589929399235
60.72523132763971
60.57254551555025
60.417219201748615
60.25831141281974
60.09205033358256
59.92029534940524
59.75238046464719
59.58508422911281
59.4176903485291
59.249659132805945
59.08054139033566
58.909917536437604
58.73737981317234
58.56252817352028
38.450419300295124
38.238634233184214
38.275148836519
38.26620011712574
38.268463702519604
38.26762676718083
38.26900293620895
38.2628374746942
37.75617391847492
37.75204261219878
37.74798426691446
37.74399437141523
37.740068658584704
37.73620329909037
37.73239504215031
37.728641305008466
37.72494022142417
37.72129066302699
62.03483514826837
61.89422801897277
61.75259030957303
61.60988907382737
61.46608428030173
61.32112248126379
61.17493173666058
61.027413637650014
60.878428186559425
60.72776611067553
60.5750878479526
60.41982246991995
60.260857752426425
60.09555616411602
59.92777197423277
59.76030614609943
59.59331887600747
59.42613869845853
59.25829159525893
59.08934669157446
58.9188914688494
58.74651919678364
58.57182765735764
38.45229465632556
38.24292712752158
38.278814554405386
38.27002948019786
38.27224936821283
38.27142769486382
38.27278498856328
38.26668236913622
37.75982446796139
37.755694608980605
37.751637718242726
37.74764916149797
37.743724572122865
37.73986005010165
37.736052301272395
37.73229872067216
37.72859743327639
37.72494730848897
62.03754143915844
61.89693103412449
61.75528862990215
61.61258384686085
61.46877710087814
61.32381553339747
61.17762814295908
61.0301182002251
60.881149162663036
60.730517876593915
60.577898889097575
60.422750441510516
60.2639930240538
60.09987912824744
59.93403249634532
59.76802957721407
59.601890044875454
59.43538532937354
59.2681438563683
59.09978113895634
58.929901241554994
58.75809857663255
58.58396295038603
38.45037068699763
38.24834782885974
38.28233666845562
38.27404693348563
38.27613455401384
38.275359102959804
38.276659137411094
38.27074768360101
37.763513755188086
37.759390067978906
37.75533932787295
37.7513565202231
37.747436976448576
37.74357658851571
37.739771940755766
37.736020371279174
37.732319986790436
37.72866965512197
62.04038539816492
61.89977354741131
61.758129002019835
61.61542390421459
61.47161956382596
61.32666405703263
61.180487901762405
61.0329971532786
60.88406074334425
60.73348577365468
60.58096998437515
60.42600795875826
60.26766700410729
60.10473897930244
59.94045811859949
59.77587379600828
59.61093906523837
59.44548276229335
59.27923162539067
59.11184690008482
58.94294962802616
58.77213023475229
58.59896014847167
38.44463656025777
38.25490086819335
38.28571358033932
38.2782530475905
38.28011909816761
38.27942110615931
38.28062529334128
38.27503365743379
37.76724139985676
37.76312904864292
37.75908955001366
37.75511720878463
37.75120683716268
37.74735399284149
37.74355508652018
37.73980739336859
37.736109015397886
37.73245883362027
62.04336756647739
61.90275554954218
61.76111125708423
61.61840902647672
61.474611375050095
61.32966764087653
61.18351038890277
61.036049456043244
60.887161044585696
60.73666657810874
60.58429277409213
60.42958937604503
60.27180172734256
60.1100616155736
59.94726637618396
59.7841369353112
59.62059170432365
59.45647632012431
59.29155810128902
59.12553254754363
58.95803102155131
58.78862933257868
58.616862959601825
38.435074568696436
38.26259369388584
38.28894263056352
38.28264875255094
38.28420271596435
38.283613878686616
38.284683293225214
38.279540664502555
37.77100674505272
37.766911701251395
37.76288924382357
37.75893261240777
37.75503586267108
37.75119412548592
37.74740364504411
37.74366168444462
37.73996639577869
37.73631671103249
62.04648818188645
61.90587698979092
61.76423516129636
61.62153890152783
61.47775212453828
61.33282571638599
61.186694748557294
61.039273679870846
60.89044759145719
60.740055470435045
60.587858387612535
60.43347700658941
60.276332466280415
60.115800445481455
59.9545087874076
59.792906327396004
59.630905304107166
59.46836712380048
59.30508887939158
59.14079266400309
58.97511558259266
58.80760531638826
58.63773381600231
38.42165981589196
38.27143676205192
38.292020071808395
38.287235345884184
38.2883849971242
38.28793765571351
38.28883289765593
38.284269221499635
37.77480882754786
37.77073838305797
37.766739881914575
37.76280496418176
37.75892668056884
37.75509974015198
37.75132034945349
37.74758590871071
37.74389473167172
37.74024586772114
62.04974727726478
61.909137735159575
61.76750041315835
61.62481312666233
61.48104129064274
61.336137568522076
61.19003991041949
61.04266806869486
60.89391730584842
60.74364661830821
60.591656181870555
60.437647204625165
60.28120514110123
60.12190934584291
59.96216890236499
59.80217438575631
59.64185226508762
59.48109142021848
59.31972705427215
59.157519873175175
58.99412233401391
58.829045667314425
58.66165592864141
38.40435964370652
38.28144369892769
38.294941021977905
38.292014506437006
38.29266540140296
38.292392735670866
38.29307378677035
38.28922000159891
37.77864632870193
37.77460990275519
37.77064397037941
37.766737745279706
37.76288311540723
37.75907460916123
37.75530879460796
37.751583479817455
37.74789731078445
37.744249546555174
62.053144730768544
61.91253755824002
61.770906637430166
61.62823121100622
61.484478245765395
61.33960234762648
61.19354461681092
61.04623058397889
60.8975666144038
60.747433411689826
60.5956737521644
60.44207387815468
60.286371937458995
60.1283369093551
59.97019363856654
59.81187545208787
59.65333849363159
59.4945137105598
59.335292640956304
59.17550424645145
59.01486972359529
58.85287975511264
58.6887370564157
38.383132592976764
38.29263159101828
38.29769938196312
38.296988318095934
38.29704325126885
38.29697948399209
38.297405553475116
38.29439385683609
37.78251749352407
37.778528092224505
37.77460584782289
37.770736481251895
37.76691048862991
37.76312361421506
37.7593734222653
37.75565849633651
37.751978018507536
37.74833156055369
62.05668029408901
61.91607613601639
61.774453380648495
61.631792577686
61.488062262911086
61.34321908350539
61.19720745224411
61.04995895835429
60.90139157764961
60.75140864646327
60.59989742799123
60.44673019882241
60.291788474861605
60.13502637352522
59.97850669629619
59.82190515414733
59.66521820776937
59.508431496758305
59.35151226610543
59.194395238143734
59.03694903790269
58.878895852552844
58.719116676553014
38.35792644454939
38.30502152473557
38.30028768541184
38.30215931216169
38.3015177192269
38.30169833915114
38.30182769306316
38.2997918523762
37.78642000633174
37.78249574806678
37.77863510871283
37.774809336678196
37.77101577396143
37.767252703491
37.76351940941372
37.75981560625513
37.756141195254514
37.75249614879582
62.06035361032401
61.91975305275559
61.77814010878988
61.63549656595266
61.491792522855306
61.346986700964464
61.20102687469368
61.05385075736138
60.90538801936793
60.75556474099921
60.604312857223334
60.451589411173245
60.297412390286944
60.141917432754866
59.98701787082656
59.83213488753331
59.67731015510823
59.5225905013086
59.368030208232135
59.213694317070356
59.059663716997555
58.90604372752719
39.84021432017847
39.84021432017847
39.84021432017847
39.84021432017847
39.84021432017847
39.84021432017847
39.84021432017847
39.84021432017847
39.84021432017847
39.84021432017847
37.78654177695353
37.7827461173042
37.77896713952499
37.77520734237546
37.771468626694066
37.76775242543952
37.76405978842048
37.76039143377444
37.75674777914035
62.74336781445253
62.60413471843666
62.46635403485659
62.33004094798009
62.19522062587879
62.06192835182354
61.93020970990744
61.80012073501205
61.67172784528276
61.54510720376485
61.420342810749354
61.29752200429128
61.17672648588803
61.0580175963768
60.9413666014773
60.82495659106641
60.70878602050163
60.59285202734694
60.477149806685325
60.36167171464581
60.24640589059341
60.131333938351446
39.84021432017847
39.84021432017847
39.84021432017847
39.84021432017847
39.84021432017847
39.84021432017847
39.84021432017847
39.84021432017847
39.84021432017847
39.84021432017847
38.31764969638841
38.31216077218428
38.30690788701942
38.3018898661964
38.29710576704338
38.29255484323614
38.28823652144858
38.28415038707329
38.28029617552746
63.20119100624652
63.061746482776435
62.9231358916606
62.785353622449335
62.64839012225836
62.512231752992086
62.37686058945482
62.24225418075729
62.10838532191931
61.97522192906774
61.84272720600112
61.7108604616918
61.5795790977947
61.448842137772814
61.319396832111636
61.19005680388371
61.0608198742543
60.93168418396773
60.80264836019098
60.67371175675696
60.544874824236004
60.41613973342884
39.84021432017847
39.84021432017847
39.84021432017847
39.84021432017847
39.84021432017847
39.84021432017847
39.84021432017847
39.84021432017847
39.84021432017847
39.84021432017847
38.32392507004015
38.31950524266378
38.31517488890686
38.31093450784625
38.30678450246863
38.30272518960856
38.29875680650482
38.29487951485574
38.29109340331159
63.44088766883306
63.301468005127624
63.16283566110909
63.02499240612092
62.88794112817455
62.75168590833813
62.616232126459145
62.48158659327977
62.34775769767227
62.214755545321424
62.082592039598254
61.95128080832872
61.82083683513332
61.69127568954292
61.56319959465097
61.435265038586785
61.30747316692789
61.17982505108054
61.052321644451
60.92496371880727
60.79775176563606
60.67068582926098
39.84021432017847
39.84021432017847
39.84021432017847
39.84021432017847
39.84021432017847
39.84021432017847
39.84021432017847
39.84021432017847
39.84021432017847
39.84021432017847
38.32386209230145
38.31917067918325
38.31460660708049
38.31016965718794
38.30585964509269
38.30167641795694
38.29761985263776
38.2936898545056
38.28988635670915
63.575921992161724
63.43650070338609
63.29780713130754
63.15984091761362
63.022601345747326
62.88608731059996
62.75029727519356
62.61522921519791
62.48088055369739
62.34724809186069
62.21432794802507
62.08211553050193
61.950605582007555
61.819792325087526
61.69036515991809
61.56106062115212
61.43187822295496
61.30281749496864
61.17387799364103
61.04505931889818
60.91636114025289
60.78778324128842
39.84021432017847
39.84021432017847
39.84021432017847
39.84021432017847
39.84021432017847
39.84021432017847
39.84021432017847
39.84021432017847
39.84021432017847
39.84021432017847
38.323862496819636
38.319242011646836
38.314738807439426
38.31035292687046
38.30608440098482
38.30193325000953
38.29789948390204
38.293983102700984
38.29018409674747
63.64791701941935
63.508494698313754
63.369768551618854
63.23173880724606
63.09440575648722
62.95776976499886
62.821831288604734
62.68659089387763
62.55204928309289
62.41820732232189
62.285066069612384
62.15262679673685
62.02089099448694
61.88986035355368
61.760225050504374
61.63071444644737
61.50132870891522
61.372068002282816
61.242932484882616
61.1139223046734
60.98503759235587
60.85627844951977
39.84021432017847
39.84021432017847
39.84021432017847
39.84021432017847
39.84021432017847
39.84021432017847
39.84021432017847
39.84021432017847
39.84021432017847
39.84021432017847
38.32386884329878
38.31922976925194
38.314710658094974
38.31031146420971
38.30603214563602
38.3018726638348
38.29783298352528
38.293913072578896
38.2901129019514
63.683097090616144
63.54367504248736
63.404935171311465
63.26687756668734
63.12950228174077
62.9928093291964
62.85679867568408
62.721470234213676
62.58682385483293
62.452859313696145
62.31957630127322
62.18697441141449
62.055053134008155
61.923811853437826
61.79395299043078
61.66421631564094
61.534601775952865
61.40510931848899
61.27573889136747
61.14649044487535
61.01736393337445
60.88835931863276
39.84021432017847
39.84021432017847
39.84021432017847
39.84021432017847
39.84021432017847
39.84021432017847
39.84021432017847
39.84021432017847
39.84021432017847
39.84021432017847
38.323865552152824
38.31923144087952
38.314716563804566
38.31032090441687
38.30604444486854
38.3018871660497
38.29784904764079
38.293930068147205
38.29013020492195
63.69358858757888
63.55416632375864
63.41542149577729
63.27735423643758
63.13996467548672
63.00325294187954
62.86721916707956
62.73186348946539
62.59718605988132
62.46318704827596
62.32986665113099
62.19722509889527
62.065262662124255
61.933979655270974
61.80407948145349
61.6743016384358
61.54464616859096
61.4151131141381
61.285702516793975
61.15641441721663
61.02724885408124
60.898205862441436
39.84021432017847
39.84021432017847
39.84021432017847
39.84021432017847
39.84021432017847
39.84021432017847
39.84021432017847
39.84021432017847
39.84021432017847
39.84021432017847
38.3238670239569
38.319231292334756
38.31471503740714
38.310318231158675
38.306040846202066
38.30188285573759
38.29784423352447
38.293924953861705
38.2901249915754
63.68309709061604
63.54367504248724
63.40493517131131
63.26687756668713
63.12950228174045
62.99280932919593
62.85679867568349
62.72147023421302
62.586823854832204
62.45285931369527
62.319576301272164
62.18697441141323
62.0550531340067
61.923811853436156
61.7939529904289
61.66421631563886
61.534601775950634
61.405109318486595
61.275738891364924
61.14649044487271
61.01736393337178
60.88835931863006
39.84021432017847
39.84021432017847
39.84021432017847
39.84021432017847
39.84021432017847
39.84021432017847
39.84021432017847
39.84021432017847
39.84021432017847
39.84021432017847
38.32386555214915
38.31923144087584
38.31471656380087
38.310320904413175
38.30604444486483
38.301887166045965
38.29784904763703
38.29393006814343
38.29013020491818
63.647917019422124
63.508494698316525
63.36976855162164
63.23173880724888
63.0944057564901
62.95776976500179
62.8218312886077
62.68659089388057
62.5520492830958
62.418207322324825
62.28506606961539
62.15262679673993
62.0208909944901
61.88986035355697
61.76022505050779
61.63071444645088
61.50132870891883
61.37206800228656
61.24293248488643
61.11392230467725
60.9850375923597
60.85627844952357
39.84021432017847
39.84021432017847
39.84021432017847
39.84021432017847
39.84021432017847
39.84021432017847
39.84021432017847
39.84021432017847
39.84021432017847
39.84021432017847
38.32386884328724
38.319229769240344
38.314710658083314
38.31031146419799
38.30603214562423
38.30187266382297
38.297832983513416
38.293913072567015
38.29011290193952
63.57592199216615
63.43650070339053
63.297807131312055
63.15984091761818
63.02260134575186
62.88608731060441
62.750297275198
62.615229215202326
62.48088055370176
62.34724809186494
62.21432794802914
62.08211553050576
61.95060558201116
61.819792325090894
61.69036515992125
61.561060621155136
61.43187822295786
61.302817494971464
61.173877993643785
61.04505931890088
60.916361140255574
60.78778324129109
39.84021432017847
39.84021432017847
39.84021432017847
39.84021432017847
39.84021432017847
39.84021432017847
39.84021432017847
39.84021432017847
39.84021432017847
39.84021432017847
38.323862496818805
38.31924201164601
38.314738807438616
38.31035292686966
38.30608440098405
38.3019332500088
38.29789948390132
38.293983102700246
38.29018409674673
63.44088766884347
63.301468005138034
63.16283566111948
63.02499240613127
62.88794112818486
62.75168590834843
62.6162321264694
62.481586593290004
62.34775769768252
62.214755545331705
62.08259203960857
61.95128080833908
61.82083683514369
61.6912756895533
61.56319959466134
61.43526503859714
61.3074731669382
61.17982505109074
61.05232164446113
60.92496371881733
60.797751765646
60.67068582927081
39.84021432017847
39.84021432017847
39.84021432017847
39.84021432017847
39.84021432017847
39.84021432017847
39.84021432017847
39.84021432017847
39.84021432017847
39.84021432017847
38.323862092299656
38.31917067918145
38.31460660707867
38.31016965718612
38.30585964509086
38.3016764179551
38.29761985263591
38.29368985450377
38.289886356707314
63.20119100625962
63.06174648278956
62.92313589167377
62.78535362246259
62.64839012227169
62.51223175300549
62.37686058946829
62.24225418077082
62.10838532193289
61.97522192908137
61.8427272060148
61.71086046170555
61.579579097808555
61.448842137786784
61.31939683212575
61.19005680389795
61.06081987426868
60.93168418398226
60.8026483602056
60.67371175677167
60.54487482425077
60.416139733443615
39.84021432017847
39.84021432017847
39.84021432017847
39.84021432017847
39.84021432017847
39.84021432017847
39.84021432017847
39.84021432017847
39.84021432017847
39.84021432017847
38.32392507003257
38.31950524265615
38.315174888899186
38.31093450783854
38.30678450246091
38.30272518960084
38.29875680649712
38.294879514848056
38.29109340330391
62.743367814455716
62.60413471843986
62.46635403485979
62.330040947983285
62.19522062588199
62.061928351826715
61.93020970991056
61.80012073501513
61.67172784528581
61.545107203767905
61.42034281075244
61.297522004294365
61.17672648589111
61.05801759637987
60.94136660148032
60.824956591069395
60.70878602050457
60.5928520273498
60.47714980668816
60.36167171464861
60.246405890596115
60.131333938354096
39.84021432017847
39.84021432017847
39.84021432017847
39.84021432017847
39.84021432017847
39.84021432017847
39.84021432017847
39.84021432017847
39.84021432017847
39.84021432017847
38.3176496963891
38.31216077218497
38.3069078870201
38.30188986619709
38.29710576704405
38.29255484323678
38.288236521449186
38.284150387073865
38.280296175528036
62.06035361032435
61.91975305275592
61.77814010879019
61.635496565952934
61.49179252285554
61.346986700964734
61.20102687469402
61.05385075736177
60.905388019368395
60.755564740999745
60.60431285722391
60.45158941117388
60.29741239028764
60.14191743275557
59.9870178708273
59.8321348875341
59.6773101551091
59.52259050130958
59.368030208233144
59.21369431707141
59.05966371699864
58.906043727528306
39.84021432017847
39.84021432017847
39.84021432017847
39.84021432017847
39.84021432017847
39.84021432017847
39.84021432017847
39.84021432017847
39.84021432017847
39.84021432017847
37.78654177694776
37.78274611729848
37.77896713951932
37.77520734236981
37.77146862668845
37.767752425433926
37.76405978841493
37.76039143376891
37.756747779134805
62.05668029408942
61.91607613601679
61.77445338064875
61.63179257768624
61.48806226291136
61.343219083505694
61.19720745224451
61.049958958354736
60.9013915776501
60.75140864646381
60.599897427991834
60.44673019882314
60.29178847486233
60.13502637352603
59.97850669629701
59.82190515414815
59.66521820777024
59.50843149675927
59.35151226610643
59.194395238144764
59.03694903790372
58.87889585255392
58.71911667655406
38.357926444553804
38.305021524751744
38.30028768541793
38.30215931216738
38.301517719249304
38.30169833915635
38.301827693062386
38.29979185237711
37.78642000632592
37.782495748061024
37.77863510870705
37.7748093366725
37.77101577395574
37.76725270348533
37.7635194094081
37.7598156062495
37.756141195248865
37.7524961487902
62.05314473076897
61.912537558240444
61.77090663743045
61.62823121100644
61.48447824576565
61.33960234762679
61.19354461681136
61.04623058397939
60.897566614404354
60.747433411690416
60.59567375216498
60.442073878155455
60.286371937459805
60.12833690935593
59.970193638567395
59.811875452088735
59.65333849363244
59.49451371056075
59.33529264095729
59.17550424645244
59.0148697235963
58.85287975511365
58.68873705641673
38.38313259298128
38.2926315910345
38.29769938196921
38.29698831810166
38.29704325129136
38.296979483997276
38.29740555347439
38.29439385683696
37.78251749351822
37.778528092218686
37.774605847817114
37.770736481246125
37.766910488624184
37.763123614209334
37.75937342225959
37.75565849633081
37.751978018501816
37.74833156054796
62.049747277265205
61.90913773515998
61.76750041315867
61.62481312666257
61.48104129064305
61.33613756852232
61.19003991041989
61.0426680686954
60.89391730584902
60.74364661830884
60.5916561818711
60.437647204625954
60.28120514110207
60.12190934584376
59.96216890236589
59.8021743857572
59.64185226508849
59.481091420219414
59.319727054273116
59.15751987317617
58.99412233401493
58.82904566731547
58.66165592864245
38.40435964371109
38.28144369894399
38.29494102198404
38.29201450644282
38.29266540142557
38.29239273567611
38.293073786769604
38.28922000159979
37.77864632869604
37.774609902749326