# vtk DataFile Version 2.0
Niestacjonarne zagadnienie cieplne - ogrzewanie wody w garnku stalowym
ASCII
DATASET UNSTRUCTURED_GRID
POINTS 1353 float
0.0 0.0 0.0
0.0 3.846153846153846E-4 0.0
0.0 7.692307692307692E-4 0.0
0.0 0.0011538461538461537 0.0
0.0 0.0015384615384615385 0.0
0.0 0.0019230769230769232 0.0
0.0 0.0023076923076923075 0.0
0.0 0.002692307692307692 0.0
0.0 0.003076923076923077 0.0
0.0 0.0034615384615384616 0.0
0.0 0.0038461538461538464 0.0
0.0 0.004230769230769231 0.0
0.0 0.004615384615384615 0.0
0.0 0.005 0.0
0.0 0.005111111111111111 0.0
0.0 0.005222222222222223 0.0
0.0 0.005333333333333333 0.0
0.0 0.0054444444444444445 0.0
0.0 0.005555555555555556 0.0
0.0 0.005666666666666667 0.0
0.0 0.0057777777777777775 0.0
0.0 0.005888888888888889 0.0
0.0 0.006 0.0
0.0 0.01711111111111111 0.0
0.0 0.028222222222222225 0.0
0.0 0.03933333333333333 0.0
0.0 0.050444444444444445 0.0
0.0 0.06155555555555556 0.0
0.0 0.07266666666666667 0.0
0.0 0.08377777777777778 0.0
0.0 0.0948888888888889 0.0
0.0 0.10600000000000001 0.0
0.0 0.10611111111111113 0.0
0.0 0.10622222222222223 0.0
0.0 0.10633333333333335 0.0
0.0 0.10644444444444445 0.0
0.0 0.10655555555555557 0.0
0.0 0.10666666666666667 0.0
0.0 0.10677777777777779 0.0
0.0 0.1068888888888889 0.0
0.0 0.10700000000000001 0.0
1.1111111111111112E-4 0.0 0.0
1.1111111111111112E-4 3.846153846153846E-4 0.0
1.1111111111111112E-4 7.692307692307692E-4 0.0
1.1111111111111112E-4 0.0011538461538461537 0.0
1.1111111111111112E-4 0.0015384615384615385 0.0
1.1111111111111112E-4 0.0019230769230769232 0.0
1.1111111111111112E-4 0.0023076923076923075 0.0
1.1111111111111112E-4 0.002692307692307692 0.0
1.1111111111111112E-4 0.003076923076923077 0.0
1.1111111111111112E-4 0.0034615384615384616 0.0
1.1111111111111112E-4 0.0038461538461538464 0.0
1.1111111111111112E-4 0.004230769230769231 0.0
1.1111111111111112E-4 0.004615384615384615 0.0
1.1111111111111112E-4 0.005 0.0
1.1111111111111112E-4 0.005111111111111111 0.0
1.1111111111111112E-4 0.005222222222222223 0.0
1.1111111111111112E-4 0.005333333333333333 0.0
1.1111111111111112E-4 0.0054444444444444445 0.0
1.1111111111111112E-4 0.005555555555555556 0.0
1.1111111111111112E-4 0.005666666666666667 0.0
1.1111111111111112E-4 0.0057777777777777775 0.0
1.1111111111111112E-4 0.005888888888888889 0.0
1.1111111111111112E-4 0.006 0.0
1.1111111111111112E-4 0.01711111111111111 0.0
1.1111111111111112E-4 0.028222222222222225 0.0
1.1111111111111112E-4 0.03933333333333333 0.0
1.1111111111111112E-4 0.050444444444444445 0.0
1.1111111111111112E-4 0.06155555555555556 0.0
1.1111111111111112E-4 0.07266666666666667 0.0
1.1111111111111112E-4 0.08377777777777778 0.0
1.1111111111111112E-4 0.0948888888888889 0.0
1.1111111111111112E-4 0.10600000000000001 0.0
1.1111111111111112E-4 0.10611111111111113 0.0
1.1111111111111112E-4 0.10622222222222223 0.0
1.1111111111111112E-4 0.10633333333333335 0.0
1.1111111111111112E-4 0.10644444444444445 0.0
1.1111111111111112E-4 0.10655555555555557 0.0
1.1111111111111112E-4 0.10666666666666667 0.0
1.1111111111111112E-4 0.10677777777777779 0.0
1.1111111111111112E-4 0.1068888888888889 0.0
1.1111111111111112E-4 0.10700000000000001 0.0
2.2222222222222223E-4 0.0 0.0
2.2222222222222223E-4 3.846153846153846E-4 0.0
2.2222222222222223E-4 7.692307692307692E-4 0.0
2.2222222222222223E-4 0.0011538461538461537 0.0
2.2222222222222223E-4 0.0015384615384615385 0.0
2.2222222222222223E-4 0.0019230769230769232 0.0
2.2222222222222223E-4 0.0023076923076923075 0.0
2.2222222222222223E-4 0.002692307692307692 0.0
2.2222222222222223E-4 0.003076923076923077 0.0
2.2222222222222223E-4 0.0034615384615384616 0.0
2.2222222222222223E-4 0.0038461538461538464 0.0
2.2222222222222223E-4 0.004230769230769231 0.0
2.2222222222222223E-4 0.004615384615384615 0.0
2.2222222222222223E-4 0.005 0.0
2.2222222222222223E-4 0.005111111111111111 0.0
2.2222222222222223E-4 0.005222222222222223 0.0
2.2222222222222223E-4 0.005333333333333333 0.0
2.2222222222222223E-4 0.0054444444444444445 0.0
2.2222222222222223E-4 0.005555555555555556 0.0
2.2222222222222223E-4 0.005666666666666667 0.0
2.2222222222222223E-4 0.0057777777777777775 0.0
2.2222222222222223E-4 0.005888888888888889 0.0
2.2222222222222223E-4 0.006 0.0
2.2222222222222223E-4 0.01711111111111111 0.0
2.2222222222222223E-4 0.028222222222222225 0.0
2.2222222222222223E-4 0.03933333333333333 0.0
2.2222222222222223E-4 0.050444444444444445 0.0
2.2222222222222223E-4 0.06155555555555556 0.0
2.2222222222222223E-4 0.07266666666666667 0.0
2.2222222222222223E-4 0.08377777777777778 0.0
2.2222222222222223E-4 0.0948888888888889 0.0
2.2222222222222223E-4 0.10600000000000001 0.0
2.2222222222222223E-4 0.10611111111111113 0.0
2.2222222222222223E-4 0.10622222222222223 0.0
2.2222222222222223E-4 0.10633333333333335 0.0
2.2222222222222223E-4 0.10644444444444445 0.0
2.2222222222222223E-4 0.10655555555555557 0.0
2.2222222222222223E-4 0.10666666666666667 0.0
2.2222222222222223E-4 0.10677777777777779 0.0
2.2222222222222223E-4 0.1068888888888889 0.0
2.2222222222222223E-4 0.10700000000000001 0.0
3.333333333333334E-4 0.0 0.0
3.333333333333334E-4 3.846153846153846E-4 0.0
3.333333333333334E-4 7.692307692307692E-4 0.0
3.333333333333334E-4 0.0011538461538461537 0.0
3.333333333333334E-4 0.0015384615384615385 0.0
3.333333333333334E-4 0.0019230769230769232 0.0
3.333333333333334E-4 0.0023076923076923075 0.0
3.333333333333334E-4 0.002692307692307692 0.0
3.333333333333334E-4 0.003076923076923077 0.0
3.333333333333334E-4 0.0034615384615384616 0.0
3.333333333333334E-4 0.0038461538461538464 0.0
3.333333333333334E-4 0.004230769230769231 0.0
3.333333333333334E-4 0.004615384615384615 0.0
3.333333333333334E-4 0.005 0.0
3.333333333333334E-4 0.005111111111111111 0.0
3.333333333333334E-4 0.005222222222222223 0.0
3.333333333333334E-4 0.005333333333333333 0.0
3.333333333333334E-4 0.0054444444444444445 0.0
3.333333333333334E-4 0.005555555555555556 0.0
3.333333333333334E-4 0.005666666666666667 0.0
3.333333333333334E-4 0.0057777777777777775 0.0
3.333333333333334E-4 0.005888888888888889 0.0
3.333333333333334E-4 0.006 0.0
3.333333333333334E-4 0.01711111111111111 0.0
3.333333333333334E-4 0.028222222222222225 0.0
3.333333333333334E-4 0.03933333333333333 0.0
3.333333333333334E-4 0.050444444444444445 0.0
3.333333333333334E-4 0.06155555555555556 0.0
3.333333333333334E-4 0.07266666666666667 0.0
3.333333333333334E-4 0.08377777777777778 0.0
3.333333333333334E-4 0.0948888888888889 0.0
3.333333333333334E-4 0.10600000000000001 0.0
3.333333333333334E-4 0.10611111111111113 0.0
3.333333333333334E-4 0.10622222222222223 0.0
3.333333333333334E-4 0.10633333333333335 0.0
3.333333333333334E-4 0.10644444444444445 0.0
3.333333333333334E-4 0.10655555555555557 0.0
3.333333333333334E-4 0.10666666666666667 0.0
3.333333333333334E-4 0.10677777777777779 0.0
3.333333333333334E-4 0.1068888888888889 0.0
3.333333333333334E-4 0.10700000000000001 0.0
4.4444444444444447E-4 0.0 0.0
4.4444444444444447E-4 3.846153846153846E-4 0.0
4.4444444444444447E-4 7.692307692307692E-4 0.0
4.4444444444444447E-4 0.0011538461538461537 0.0
4.4444444444444447E-4 0.0015384615384615385 0.0
4.4444444444444447E-4 0.0019230769230769232 0.0
4.4444444444444447E-4 0.0023076923076923075 0.0
4.4444444444444447E-4 0.002692307692307692 0.0
4.4444444444444447E-4 0.003076923076923077 0.0
4.4444444444444447E-4 0.0034615384615384616 0.0
4.4444444444444447E-4 0.0038461538461538464 0.0
4.4444444444444447E-4 0.004230769230769231 0.0
4.4444444444444447E-4 0.004615384615384615 0.0
4.4444444444444447E-4 0.005 0.0
4.4444444444444447E-4 0.005111111111111111 0.0
4.4444444444444447E-4 0.005222222222222223 0.0
4.4444444444444447E-4 0.005333333333333333 0.0
4.4444444444444447E-4 0.0054444444444444445 0.0
4.4444444444444447E-4 0.005555555555555556 0.0
4.4444444444444447E-4 0.005666666666666667 0.0
4.4444444444444447E-4 0.0057777777777777775 0.0
4.4444444444444447E-4 0.005888888888888889 0.0
4.4444444444444447E-4 0.006 0.0
4.4444444444444447E-4 0.01711111111111111 0.0
4.4444444444444447E-4 0.028222222222222225 0.0
4.4444444444444447E-4 0.03933333333333333 0.0
4.4444444444444447E-4 0.050444444444444445 0.0
4.4444444444444447E-4 0.06155555555555556 0.0
4.4444444444444447E-4 0.07266666666666667 0.0
4.4444444444444447E-4 0.08377777777777778 0.0
4.4444444444444447E-4 0.0948888888888889 0.0
4.4444444444444447E-4 0.10600000000000001 0.0
4.4444444444444447E-4 0.10611111111111113 0.0
4.4444444444444447E-4 0.10622222222222223 0.0
4.4444444444444447E-4 0.10633333333333335 0.0
4.4444444444444447E-4 0.10644444444444445 0.0
4.4444444444444447E-4 0.10655555555555557 0.0
4.4444444444444447E-4 0.10666666666666667 0.0
4.4444444444444447E-4 0.10677777777777779 0.0
4.4444444444444447E-4 0.1068888888888889 0.0
4.4444444444444447E-4 0.10700000000000001 0.0
5.555555555555556E-4 0.0 0.0
5.555555555555556E-4 3.846153846153846E-4 0.0
5.555555555555556E-4 7.692307692307692E-4 0.0
5.555555555555556E-4 0.0011538461538461537 0.0
5.555555555555556E-4 0.0015384615384615385 0.0
5.555555555555556E-4 0.0019230769230769232 0.0
5.555555555555556E-4 0.0023076923076923075 0.0
5.555555555555556E-4 0.002692307692307692 0.0
5.555555555555556E-4 0.003076923076923077 0.0
5.555555555555556E-4 0.0034615384615384616 0.0
5.555555555555556E-4 0.0038461538461538464 0.0
5.555555555555556E-4 0.004230769230769231 0.0
5.555555555555556E-4 0.004615384615384615 0.0
5.555555555555556E-4 0.005 0.0
5.555555555555556E-4 0.005111111111111111 0.0
5.555555555555556E-4 0.005222222222222223 0.0
5.555555555555556E-4 0.005333333333333333 0.0
5.555555555555556E-4 0.0054444444444444445 0.0
5.555555555555556E-4 0.005555555555555556 0.0
5.555555555555556E-4 0.005666666666666667 0.0
5.555555555555556E-4 0.0057777777777777775 0.0
5.555555555555556E-4 0.005888888888888889 0.0
5.555555555555556E-4 0.006 0.0
5.555555555555556E-4 0.01711111111111111 0.0
5.555555555555556E-4 0.028222222222222225 0.0
5.555555555555556E-4 0.03933333333333333 0.0
5.555555555555556E-4 0.050444444444444445 0.0
5.555555555555556E-4 0.06155555555555556 0.0
[...]
POINT_DATA 1353
SCALARS Temperatura float 1
LOOKUP_TABLE default
98.1637729927831
98.03042891178603
97.89567814116731
97.75948216521729
97.62179365270244
97.48254773868211
97.34165548259901
97.19899223006567
97.05437711235439
96.90752706210205
96.75799263806313
96.60489332155457
96.44696480853032
96.27797123945957
96.09951234286434
95.92884823764221
95.76005355125955
95.59198454399873
95.4238519688661
95.25505818453225
95.0850798405899
94.91342977486077
94.7396420907728
74.9855218435068
74.7813989631807
74.81643846098643
74.80780534346125
74.81009786389909
74.80882671381555
74.812103071848
74.79521750204786
73.47135088349457
73.45978616653521
73.44837180584031
73.43708254761724
73.42589463468012
73.41478682459902
73.40374112854064
73.39274328043238
73.38178299132743
73.3708540618227
98.16850374517789
98.03515390940886
97.90039646777211
97.76419435017533
97.62650029843968
97.48724974208633
97.34635411570414
97.20368980264064
97.05907658274376
96.91223862034911
96.76271497396355
96.60971958497224
96.45165424893739
96.28442942213493
96.11346008601396
95.94357980257966
95.77529447350348
95.60754421886362
95.43966421110972
95.27109235844078
95.10132093435489
94.92986843190077
94.75626975859795
74.99490045660104
74.7931421966862
74.82756778047086
74.81909533030459
74.821343386088
74.82009359681597
74.82332665523755
74.80659927165323
73.48224434354208
73.47069024105798
73.45928637850245
73.44800685421174
73.43682738796558
73.42572636646773
73.41468557349982
73.40369062644864
73.39273118997329
73.38180105264453
98.17339188538642
98.0400393746348
97.90527815380166
97.76907376194852
97.63137948106431
97.49213151157477
97.35124259896372
97.20859148712627
97.06400294947517
96.91720971728704
96.76777163920232
96.61494625165822
96.45717419948673
96.29202046288873
96.12448534283517
95.9571179940112
95.79015053054604
95.623361036894
95.45627755801551
95.2884279422868
95.1193423537179
94.94855271982516
94.77559412102366
75.00054327138622
74.80596803899797
74.83853537417798
74.8305492138741
74.8326626765404
74.83147761550563
74.8345792716572
74.81833371986339
73.49305447396507
73.4815376838699
73.47017065340718
73.45892547847924
73.44777629294688
73.43670039349743
73.42567892796067
73.41469721520116
73.40374482293826
73.39281553025943
98.17843844170588
98.04508519747122
97.91032308479464
97.77412023430922
97.63643097231765
97.49719273383364
97.356320376165
97.21369658074946
97.06915396334229
96.92243976196532
96.77314811416633
96.620586272872
96.46343639821698
96.30022203485488
96.13523452702306
95.97010260743058
95.80492076568547
95.63956752250365
95.47375318979336
95.30709416034175
95.13916295265885
94.96950351630888
94.79764388436755
75.00243884603078
74.81988114418374
74.84933961150212
74.84216757175757
74.84405554514876
74.84297894983078
74.84586062599688
74.83042159591753
73.503779535212
73.49232907441683
73.48102728771094
73.46984268841133
73.45874668705146
73.4477148330916
73.4367273679356
73.42576927981126
73.4148301085329
73.40390369917823
98.18364391212339
98.05029132384227
97.91553104176829
97.77933348601303
97.64165439349554
97.50243286664536
97.36158660503727
97.21900364651407
97.07452696700294
96.92792430466099
96.77883166348882
96.62663504168094
96.47030414640341
96.30891361170617
96.14615384979861
95.98314454090838
95.81989753258104
95.656308582622
95.49215520672695
95.32711773522423
95.16080057627828
94.99274885684214
94.82246691442107
75.00056850420958
74.83488915704645
74.8599777855381
74.85395134801392
74.85552166328239
74.85459788613657
74.85717021514706
74.84286412624297
73.51441654603137
73.50306569392016
73.49186129345425
73.48076625093657
73.46974802187617
73.4587799393178
73.44784137991721
73.43691726400803
73.42599738469532
73.41507584800995
98.18900847378751
98.0556576402493
97.9209017208676
97.78471311918418
97.6470492177802
97.50785116278219
97.36704013349177
97.22451070955266
97.08011851322168
96.93365645549139
96.78480969997564
96.6330671763934
96.47767012975724
96.3180358425082
96.15738802847285
95.99647386602953
95.83526941173028
95.67367722756671
95.51151207235553
95.34849543738487
95.18425256799102
95.0183136745125
94.85013106983858
74.994906095066
74.85100278403212
74.87044609153116
74.86590186005083
74.86706056078633
74.86633482115884
74.86850731587724
74.85566305743096
73.52496112728198
73.5137501585244
73.50268115557398
73.49170860858649
73.48079477921891
73.46991084686293
73.45903600109474
73.44815585358981
73.43726102646187
73.42634623121204
98.19453208181979
98.0611839333281
97.92643473128088
97.79025862260755
97.65261477681543
97.51344668572433
97.37267952268472
97.23021535296154
97.08592430297506
96.93962791814825
96.79106723134444
96.63984779990383
96.48545102072042
96.32753833437066
96.16896685232335
96.01016162203322
95.85109338768677
95.69168283796809
95.5317830998471
95.3711607712307
95.20946579920123
95.04620203429391
94.88072593061305
74.98541750647696
74.86823593289233
74.88073958586301
74.87802081121555
74.87867162078435
74.87819026862512
74.87987096482588
74.86882072750791
73.53540724205853
73.52438780105568
73.5135010895161
73.50268897377326
73.49190787425313
73.48112823280695
73.47033100566335
73.45950389011756
73.44863922417264
73.43773280673315
98.20021451991991
98.06686987819762
97.9321295899961
97.79596937556605
97.65835026935301
97.51921832654335
97.37850308686087
97.23611477982706
97.0919393439924
96.94582934453798
96.79758669426349
96.64693886764597
96.49357845928093
96.33736761896645
96.18086395677359
96.02418987210207
95.86733193315465
95.71024467276325
95.55283525109853
95.3949408923699
95.23628542600453
95.07635997959991
94.91436623060474
74.9720597143242
74.88660597948343
74.89085210986116
74.89031031341503
74.89035407078225
74.89016487014602
74.89125992540298
74.88234018454548
73.54574676142822
73.53499001975703
73.52434558813633
73.51373709020629
73.5031162299491
73.49245880348282
73.48175083804905
73.47098404020521
73.46015353683701
73.44925675698694
98.2060554290816
98.07271503782646
97.93798571822703
97.80184465167804
97.66425477104288
97.52516482419301
97.38450893616766
97.24220588841295
97.09815814302162
96.95225057788052
96.80434868572702
96.65430200594447
96.50199282498215
96.34746545428833
96.19302017814843
96.03848607503514
95.88387933765037
95.72920203917202
95.57443388834692
95.41951821413579
95.26432911101394
95.10859104365274
94.9511987150882
74.95477890558546
74.9061342858514
74.90077614503437
74.90277292892125
74.90210696692803
74.90225941378085
74.90267263125403
74.89622539050588
73.55596871499
73.54558048181867
73.53526326537427
73.52489671712615
73.51445766413352
73.50393511106243
73.49332404524354
73.48262209447111
73.47182815037132
73.46094173877438
98.21205432597554
98.0787188665419
97.94400244006799
97.80788362284572
97.67032724509002
97.53128478797196
97.39069502153059
97.2484853604149
97.10457489390726
96.95888094911165
96.81133284431995
96.66189959214717
96.51063958620983
96.35777020334378
96.20535754128058
96.05294508665679
95.90058509400836
95.74833434413969
95.59625622460842
95.44442391777343
95.29292546844383
95.14187243042842
77.56395572946563
77.56395572946563
77.56395572946563
77.56395572946563
77.56395572946563
77.56395572946563
77.56395572946563
77.56395572946563
77.56395572946563
77.56395572946563
73.5562800938929
73.5463307944797
73.53622612520391
73.5259777157873
73.5155942043251
73.50508201852297
73.49444582881384
73.4836888197553
73.4728128532483
99.15320424789573
99.0215232891139
98.89139593722334
98.76284028256175
98.63588634127078
98.51057620460433
98.3869642258274
98.26511711707784
98.14511369801548
98.02704379051956
97.91100525887666
97.79709733651592
97.68540798838812
97.57599569161611
97.46866370695251
97.36157378074897
97.25472333814143
97.14810866130571
97.0417243213216
96.93556231127369
96.82961067272178
96.72385115860546
77.56395572946563
77.56395572946563
77.56395572946563
77.56395572946563
77.56395572946563
77.56395572946563
77.56395572946563
77.56395572946563
77.56395572946563
77.56395572946563
74.94139697260422
74.92727544095304
74.91355077502509
74.90021865186355
74.88727573086501
74.87471944119258
74.8625478578993
74.8507596273882
74.83935392241847
99.77309094765147
99.64115545636696
99.51000072935362
99.37961997742208
99.25000167138808
99.12112937328995
98.99298150419418
98.86553108091883
98.73874548899454
98.61258642651009
98.48701028902235
98.36196950247918
98.23741542934701
98.11330278711199
97.9903691701686
97.86751893218742
97.7447496479885
97.62205916010325
97.49944573044205
97.37690827251923
97.25444672020366
97.13206265586453
77.56395572946563
77.56395572946563
77.56395572946563
77.56395572946563
77.56395572946563
77.56395572946563
77.56395572946563
77.56395572946563
77.56395572946563
77.56395572946563
74.95889975168616
74.94750997372294
74.93613908798851
74.9247887758522
74.91346036857625
74.90215490553965
74.89087316840968
74.87961570185075
74.86838282609716
100.10034391298116
99.9684378679749
99.83723955043611
99.70675101659981
99.57697565335188
99.44791826672738
99.31958520595033
99.19198451558671
99.06512609923483
98.93902186011255
98.81368574704679
98.68913356936834
98.56538240921802
98.44244963849323
98.32091171966016
98.19949734275505
98.07820779625987
97.95704431007331
97.83600801589066
97.7150998858771
97.59432063456492
97.4736705509351
77.56395572946563
77.56395572946563
77.56395572946563
77.56395572946563
77.56395572946563
77.56395572946563
77.56395572946563
77.56395572946563
77.56395572946563
77.56395572946563
74.95877369039943
74.94669174740473
74.93472612893947
74.92287622068929
74.91114152446963
74.89952164215157
74.88801626613336
74.87662517350931
74.86534822250202
100.28459647908164
100.15268852433356
100.02140770460265
99.89075353496646
99.76072509771932
99.63132100626025
99.5025393539447
99.37437764932739
99.24683274153755
99.11990074429208
98.99357697698431
98.86785595902879
98.74273150381549
98.61819691200324
98.4949370538908
98.37177784469279
98.24871871000146
98.12575908597178
98.00289842945197
97.88013623395962
97.75747205556141
97.63490555754386
77.56395572946563
77.56395572946563
77.56395572946563
77.56395572946563
77.56395572946563
77.56395572946563
77.56395572946563
77.56395572946563
77.56395572946563
77.56395572946563
74.95877483790574
74.94687371232743
74.93506301887092
74.92334293430889
74.91171359828286
74.90017511777356
74.88872756978316
74.87737100299591
74.86610543880329
100.38307988110525
100.25117062000956
100.11984552541715
99.989104814649
99.85894877814474
99.72937779256111
99.60039233949081
99.4719930296401
99.34418063174172
99.21695610424645
99.09032062517875
98.96427561071185
98.83882271010077
98.71396377685022
98.59038769552373
98.46691415364266
98.34354333423305
98.22027541864308
98.09711058400956
97.97404899914449
97.85109081774495
97.72823616652482
77.56395572946563
77.56395572946563
77.56395572946563
77.56395572946563
77.56395572946563
77.56395572946563
77.56395572946563
77.56395572946563
77.56395572946563
77.56395572946563
74.9587913075632
74.94684279073645
74.93499160917497
74.92323768123082
74.91158093677555
74.9000213159429
74.8885587683639
74.87719325268702
74.86592473627917
100.43125152353917
100.29934257707787
100.16799852066967
100.03721940792029
99.90700524757503
99.7773559988387
99.64827156462779
99.51975178270953
99.39179641481527
99.26440513414258
99.13757751240351
99.01131300895904
98.88561096545301
98.76047060594414
98.63659674446681
98.51282225210878
98.38914705754992
98.2655710891864
98.14209427577684
98.01871654754149
97.89543783802839
97.77225808743567
77.56395572946563
77.56395572946563
77.56395572946563
77.56395572946563
77.56395572946563
77.56395572946563
77.56395572946563
77.56395572946563
77.56395572946563
77.56395572946563
74.95878298020546
74.94684711643333
74.93500671221956
74.92326176919435
74.9116122851226
74.90005825428308
74.88859966770283
74.87723651330649
74.86596877601025
100.44563001606274
100.31372080412739
100.18237004241385
100.0515778362123
99.92134428604263
99.79166949035306
99.66255354943871
99.53399657064314
99.40599867485395
99.27856000415228
99.15168073011384
99.0253610615714
98.89960125020112
98.77440159397523
98.65046852612478
98.5266349169299
98.40290080634632
98.27926623444682
98.15573124113372
98.03229586562547
97.90896014555825
97.78572411535824
77.56395572946563
77.56395572946563
77.56395572946563
77.56395572946563
77.56395572946563
77.56395572946563
77.56395572946563
77.56395572946563
77.56395572946563
77.56395572946563
74.95878675786014
74.94684676262628
74.93500285116383
74.92325499275601
74.91160315871775
74.90004732219741
74.88858745805268
74.87722354277095
74.86595555441848
100.43125152353899
100.29934257707764
100.1679985206694
100.03721940791993
99.9070052475745
99.77735599883795
99.64827156462684
99.51975178270847
99.39179641481408
99.26440513414117
99.13757751240183
99.01131300895705
98.8856109654507
98.76047060594149
98.63659674446383
98.51282225210547
98.38914705754635
98.26557108918257
98.14209427577279
98.0187165475373
97.89543783802411
97.77225808743133
77.56395572946563
77.56395572946563
77.56395572946563
77.56395572946563
77.56395572946563
77.56395572946563
77.56395572946563
77.56395572946563
77.56395572946563
77.56395572946563
74.9587829801982
74.94684711642608
74.9350067122123
74.92326176918708
74.9116122851153
74.9000582542757
74.88859966769544
74.87723651329908
74.86596877600283
100.38307988110981
100.25117062001414
100.11984552542177
99.98910481465367
99.8589487781495
99.72937779256597
99.60039233949571
99.47199302964496
99.34418063174653
99.21695610425128
99.0903206251837
98.96427561071692
98.83882271010597
98.71396377685562
98.59038769552933
98.46691415364842
98.34354333423897
98.22027541864922
98.09711058401581
97.9740489991508
97.85109081775123
97.72823616653106
77.56395572946563
77.56395572946563
77.56395572946563
77.56395572946563
77.56395572946563
77.56395572946563
77.56395572946563
77.56395572946563
77.56395572946563
77.56395572946563
74.95879130754052
74.94684279071366
74.93499160915206
74.92323768120777
74.91158093675236
74.90002131591963
74.88855876834056
74.87719325266364
74.8659247362558
100.28459647908885
100.15268852434079
100.02140770460997
99.89075353497383
99.76072509772665
99.63132100626746
99.50253935395187
99.37437764933453
99.24683274154461
99.11990074429896
98.9935769769909
98.86785595903501
98.74273150382133
98.6181969120087
98.49493705389594
98.37177784469772
98.24871871000622
98.12575908597638
98.00289842945648
97.88013623396402
97.7574720555658
97.63490555754822
77.56395572946563
77.56395572946563
77.56395572946563
77.56395572946563
77.56395572946563
77.56395572946563
77.56395572946563
77.56395572946563
77.56395572946563
77.56395572946563
74.95877483790404
74.94687371232574
74.93506301886926
74.92334293430727
74.91171359828128
74.90017511777205
74.88872756978168
74.8773710029944
74.86610543880178
100.10034391299794
99.96843786799167
99.83723955045284
99.70675101661648
99.5769756533685
99.447918266744
99.31958520596689
99.19198451560321
99.06512609925134
98.93902186012912
98.81368574706342
98.68913356938504
98.56538240923474
98.44244963850998
98.32091171967689
98.19949734277175
98.07820779627647
97.95704431008971
97.83600801590696
97.71509988589328
97.5943206345809
97.47367055095091
77.56395572946563
77.56395572946563
77.56395572946563
77.56395572946563
77.56395572946563
77.56395572946563
77.56395572946563
77.56395572946563
77.56395572946563
77.56395572946563
74.9587736903959
74.94669174740118
74.93472612893589
74.9228762206857
74.91114152446602
74.89952164214793
74.88801626612972
74.8766251735057
74.86534822249843
99.7730909476725
99.64115545638802
99.51000072937475
99.3796199774433
99.25000167140941
99.12112937331138
98.99298150421573
98.86553108094049
98.73874548901627
98.61258642653189
98.48701028904424
98.36196950250117
98.23741542936915
98.11330278713433
97.99036917019117
97.86751893221019
97.74474964801148
97.62205916012647
97.4994457304654
97.3769082725427
97.25444672022725
97.13206265588812
77.56395572946563
77.56395572946563
77.56395572946563
77.56395572946563
77.56395572946563
77.56395572946563
77.56395572946563
77.56395572946563
77.56395572946563
77.56395572946563
74.95889975167125
74.94750997370795
74.93613908797343
74.92478877583706
74.91346036856108
74.90215490552447
74.89087316839453
74.87961570183566
74.86838282608207
99.15320424790092
99.0215232891191
98.89139593722855
98.762840282567
98.63588634127602
98.51057620460954
98.38696422583251
98.26511711708287
98.14511369802048
98.02704379052456
97.91100525888169
97.79709733652096
97.68540798839317
97.57599569162113
97.46866370695747
97.3615737807539
97.2547233381463
97.14810866131045
97.04172432132631
96.93556231127832
96.82961067272628
96.72385115860988
77.56395572946563
77.56395572946563
77.56395572946563
77.56395572946563
77.56395572946563
77.56395572946563
77.56395572946563
77.56395572946563
77.56395572946563
77.56395572946563
74.9413969726054
74.92727544095422
74.91355077502625
74.90021865186475
74.88727573086616
74.87471944119368
74.86254785790032
74.85075962738917
74.83935392241942
98.2120543259761
98.07871886654246
97.94400244006852
97.80788362284616
97.67032724509042
97.53128478797238
97.39069502153113
97.24848536041554
97.104574893908
96.95888094911247
96.81133284432086
96.66189959214817
96.51063958621094
96.35777020334494
96.20535754128178
96.05294508665804
95.9005850940097
95.7483343441412
95.59625622460996
95.44442391777503
95.29292546844545
95.14187243043006
77.56395572946563
77.56395572946563
77.56395572946563
77.56395572946563
77.56395572946563
77.56395572946563
77.56395572946563
77.56395572946563
77.56395572946563
77.56395572946563
73.55628009388163
73.54633079446853
73.53622612519283
73.52597771577625
73.5155942043141
73.50508201851204
73.494445828803
73.4836888197445
73.4728128532375
98.20605542908233
98.07271503782714
97.93798571822748
97.80184465167851
97.66425477104329
97.5251648241935
97.38450893616837
97.24220588841362
97.09815814302243
96.95225057788143
96.80434868572793
96.65430200594567
96.50199282498336
96.34746545428958
96.19302017814974
96.03848607503645
95.88387933765176
95.72920203917352
95.57443388834844
95.41951821413737
95.26432911101553
95.1085910436544
94.95119871508982
74.95477890559414
74.9061342858831
74.90077614504628
74.90277292893225
74.90210696697228
74.90225941379117
74.90267263125251
74.89622539050802
73.55596871497866
73.54558048180739
73.53526326536301
73.52489671711494
73.51445766412242
73.50393511105136
73.49332404523251
73.48262209446007
73.47182815036038
73.4609417387634
98.20021451992068
98.06686987819833
97.93212958999659
97.79596937556641
97.65835026935349
97.51921832654388
97.37850308686164
97.23611477982782
97.09193934399333
96.94582934453902
96.79758669426447
96.64693886764722
96.49357845928225
96.33736761896773
96.18086395677489
96.0241898721034
95.86733193315602
95.71024467276469
95.55283525110006
95.39494089237145
95.23628542600608
95.07635997960149
94.9143662306063
74.97205971433296
74.88660597951525
74.89085210987305
74.89031031342608
74.8903540708267
74.89016487015633
74.89125992540147
74.8823401845475
73.54574676141682
73.53499001974569
73.52434558812497
73.51373709019497
73.50311622993785
73.49245880347164
73.48175083803791
73.47098404019408
73.46015353682586
73.44925675697579
98.19453208182058
98.06118393332873
97.9264347312814
97.79025862260795
97.65261477681588
97.51344668572483
97.3726795226854
97.23021535296233
97.08592430297608
96.93962791814933
96.79106723134542
96.63984779990521
96.48545102072175
96.32753833437206
96.16896685232477
96.0101616220346
95.85109338768817
95.6916828379696
95.53178309984865
95.37116077123228
95.20946579920277
95.04620203429546
94.88072593061452
74.98541750648586
74.86823593292429
74.88073958587488
74.87802081122679
74.87867162082891
74.87819026863545
74.87987096482439
74.86882072750981
73.53540724204704
73.52438780104427
73.51350108950463
73.50268897376185
73.49190787424182
73.48112823279568
73.4703310056521
73.4595038901063
73.44863922416141
73.43773280672194
98.18900847378829
98.0556576402499
97.9209017208682
97.78471311918457
97.64704921778069
97.50785116278266
97.36704013349238