# vtk DataFile Version 2.0
Niestacjonarne zagadnienie cieplne - ogrzewanie wody w garnku stalowym
ASCII
DATASET UNSTRUCTURED_GRID
POINTS 1353 float
0.0 0.0 0.0
0.0 3.846153846153846E-4 0.0
0.0 7.692307692307692E-4 0.0
0.0 0.0011538461538461537 0.0
0.0 0.0015384615384615385 0.0
0.0 0.0019230769230769232 0.0
0.0 0.0023076923076923075 0.0
0.0 0.002692307692307692 0.0
0.0 0.003076923076923077 0.0
0.0 0.0034615384615384616 0.0
0.0 0.0038461538461538464 0.0
0.0 0.004230769230769231 0.0
0.0 0.004615384615384615 0.0
0.0 0.005 0.0
0.0 0.005111111111111111 0.0
0.0 0.005222222222222223 0.0
0.0 0.005333333333333333 0.0
0.0 0.0054444444444444445 0.0
0.0 0.005555555555555556 0.0
0.0 0.005666666666666667 0.0
0.0 0.0057777777777777775 0.0
0.0 0.005888888888888889 0.0
0.0 0.006 0.0
0.0 0.01711111111111111 0.0
0.0 0.028222222222222225 0.0
0.0 0.03933333333333333 0.0
0.0 0.050444444444444445 0.0
0.0 0.06155555555555556 0.0
0.0 0.07266666666666667 0.0
0.0 0.08377777777777778 0.0
0.0 0.0948888888888889 0.0
0.0 0.10600000000000001 0.0
0.0 0.10611111111111113 0.0
0.0 0.10622222222222223 0.0
0.0 0.10633333333333335 0.0
0.0 0.10644444444444445 0.0
0.0 0.10655555555555557 0.0
0.0 0.10666666666666667 0.0
0.0 0.10677777777777779 0.0
0.0 0.1068888888888889 0.0
0.0 0.10700000000000001 0.0
1.1111111111111112E-4 0.0 0.0
1.1111111111111112E-4 3.846153846153846E-4 0.0
1.1111111111111112E-4 7.692307692307692E-4 0.0
1.1111111111111112E-4 0.0011538461538461537 0.0
1.1111111111111112E-4 0.0015384615384615385 0.0
1.1111111111111112E-4 0.0019230769230769232 0.0
1.1111111111111112E-4 0.0023076923076923075 0.0
1.1111111111111112E-4 0.002692307692307692 0.0
1.1111111111111112E-4 0.003076923076923077 0.0
1.1111111111111112E-4 0.0034615384615384616 0.0
1.1111111111111112E-4 0.0038461538461538464 0.0
1.1111111111111112E-4 0.004230769230769231 0.0
1.1111111111111112E-4 0.004615384615384615 0.0
1.1111111111111112E-4 0.005 0.0
1.1111111111111112E-4 0.005111111111111111 0.0
1.1111111111111112E-4 0.005222222222222223 0.0
1.1111111111111112E-4 0.005333333333333333 0.0
1.1111111111111112E-4 0.0054444444444444445 0.0
1.1111111111111112E-4 0.005555555555555556 0.0
1.1111111111111112E-4 0.005666666666666667 0.0
1.1111111111111112E-4 0.0057777777777777775 0.0
1.1111111111111112E-4 0.005888888888888889 0.0
1.1111111111111112E-4 0.006 0.0
1.1111111111111112E-4 0.01711111111111111 0.0
1.1111111111111112E-4 0.028222222222222225 0.0
1.1111111111111112E-4 0.03933333333333333 0.0
1.1111111111111112E-4 0.050444444444444445 0.0
1.1111111111111112E-4 0.06155555555555556 0.0
1.1111111111111112E-4 0.07266666666666667 0.0
1.1111111111111112E-4 0.08377777777777778 0.0
1.1111111111111112E-4 0.0948888888888889 0.0
1.1111111111111112E-4 0.10600000000000001 0.0
1.1111111111111112E-4 0.10611111111111113 0.0
1.1111111111111112E-4 0.10622222222222223 0.0
1.1111111111111112E-4 0.10633333333333335 0.0
1.1111111111111112E-4 0.10644444444444445 0.0
1.1111111111111112E-4 0.10655555555555557 0.0
1.1111111111111112E-4 0.10666666666666667 0.0
1.1111111111111112E-4 0.10677777777777779 0.0
1.1111111111111112E-4 0.1068888888888889 0.0
1.1111111111111112E-4 0.10700000000000001 0.0
2.2222222222222223E-4 0.0 0.0
2.2222222222222223E-4 3.846153846153846E-4 0.0
2.2222222222222223E-4 7.692307692307692E-4 0.0
2.2222222222222223E-4 0.0011538461538461537 0.0
2.2222222222222223E-4 0.0015384615384615385 0.0
2.2222222222222223E-4 0.0019230769230769232 0.0
2.2222222222222223E-4 0.0023076923076923075 0.0
2.2222222222222223E-4 0.002692307692307692 0.0
2.2222222222222223E-4 0.003076923076923077 0.0
2.2222222222222223E-4 0.0034615384615384616 0.0
2.2222222222222223E-4 0.0038461538461538464 0.0
2.2222222222222223E-4 0.004230769230769231 0.0
2.2222222222222223E-4 0.004615384615384615 0.0
2.2222222222222223E-4 0.005 0.0
2.2222222222222223E-4 0.005111111111111111 0.0
2.2222222222222223E-4 0.005222222222222223 0.0
2.2222222222222223E-4 0.005333333333333333 0.0
2.2222222222222223E-4 0.0054444444444444445 0.0
2.2222222222222223E-4 0.005555555555555556 0.0
2.2222222222222223E-4 0.005666666666666667 0.0
2.2222222222222223E-4 0.0057777777777777775 0.0
2.2222222222222223E-4 0.005888888888888889 0.0
2.2222222222222223E-4 0.006 0.0
2.2222222222222223E-4 0.01711111111111111 0.0
2.2222222222222223E-4 0.028222222222222225 0.0
2.2222222222222223E-4 0.03933333333333333 0.0
2.2222222222222223E-4 0.050444444444444445 0.0
2.2222222222222223E-4 0.06155555555555556 0.0
2.2222222222222223E-4 0.07266666666666667 0.0
2.2222222222222223E-4 0.08377777777777778 0.0
2.2222222222222223E-4 0.0948888888888889 0.0
2.2222222222222223E-4 0.10600000000000001 0.0
2.2222222222222223E-4 0.10611111111111113 0.0
2.2222222222222223E-4 0.10622222222222223 0.0
2.2222222222222223E-4 0.10633333333333335 0.0
2.2222222222222223E-4 0.10644444444444445 0.0
2.2222222222222223E-4 0.10655555555555557 0.0
2.2222222222222223E-4 0.10666666666666667 0.0
2.2222222222222223E-4 0.10677777777777779 0.0
2.2222222222222223E-4 0.1068888888888889 0.0
2.2222222222222223E-4 0.10700000000000001 0.0
3.333333333333334E-4 0.0 0.0
3.333333333333334E-4 3.846153846153846E-4 0.0
3.333333333333334E-4 7.692307692307692E-4 0.0
3.333333333333334E-4 0.0011538461538461537 0.0
3.333333333333334E-4 0.0015384615384615385 0.0
3.333333333333334E-4 0.0019230769230769232 0.0
3.333333333333334E-4 0.0023076923076923075 0.0
3.333333333333334E-4 0.002692307692307692 0.0
3.333333333333334E-4 0.003076923076923077 0.0
3.333333333333334E-4 0.0034615384615384616 0.0
3.333333333333334E-4 0.0038461538461538464 0.0
3.333333333333334E-4 0.004230769230769231 0.0
3.333333333333334E-4 0.004615384615384615 0.0
3.333333333333334E-4 0.005 0.0
3.333333333333334E-4 0.005111111111111111 0.0
3.333333333333334E-4 0.005222222222222223 0.0
3.333333333333334E-4 0.005333333333333333 0.0
3.333333333333334E-4 0.0054444444444444445 0.0
3.333333333333334E-4 0.005555555555555556 0.0
3.333333333333334E-4 0.005666666666666667 0.0
3.333333333333334E-4 0.0057777777777777775 0.0
3.333333333333334E-4 0.005888888888888889 0.0
3.333333333333334E-4 0.006 0.0
3.333333333333334E-4 0.01711111111111111 0.0
3.333333333333334E-4 0.028222222222222225 0.0
3.333333333333334E-4 0.03933333333333333 0.0
3.333333333333334E-4 0.050444444444444445 0.0
3.333333333333334E-4 0.06155555555555556 0.0
3.333333333333334E-4 0.07266666666666667 0.0
3.333333333333334E-4 0.08377777777777778 0.0
3.333333333333334E-4 0.0948888888888889 0.0
3.333333333333334E-4 0.10600000000000001 0.0
3.333333333333334E-4 0.10611111111111113 0.0
3.333333333333334E-4 0.10622222222222223 0.0
3.333333333333334E-4 0.10633333333333335 0.0
3.333333333333334E-4 0.10644444444444445 0.0
3.333333333333334E-4 0.10655555555555557 0.0
3.333333333333334E-4 0.10666666666666667 0.0
3.333333333333334E-4 0.10677777777777779 0.0
3.333333333333334E-4 0.1068888888888889 0.0
3.333333333333334E-4 0.10700000000000001 0.0
4.4444444444444447E-4 0.0 0.0
4.4444444444444447E-4 3.846153846153846E-4 0.0
4.4444444444444447E-4 7.692307692307692E-4 0.0
4.4444444444444447E-4 0.0011538461538461537 0.0
4.4444444444444447E-4 0.0015384615384615385 0.0
4.4444444444444447E-4 0.0019230769230769232 0.0
4.4444444444444447E-4 0.0023076923076923075 0.0
4.4444444444444447E-4 0.002692307692307692 0.0
4.4444444444444447E-4 0.003076923076923077 0.0
4.4444444444444447E-4 0.0034615384615384616 0.0
4.4444444444444447E-4 0.0038461538461538464 0.0
4.4444444444444447E-4 0.004230769230769231 0.0
4.4444444444444447E-4 0.004615384615384615 0.0
4.4444444444444447E-4 0.005 0.0
4.4444444444444447E-4 0.005111111111111111 0.0
4.4444444444444447E-4 0.005222222222222223 0.0
4.4444444444444447E-4 0.005333333333333333 0.0
4.4444444444444447E-4 0.0054444444444444445 0.0
4.4444444444444447E-4 0.005555555555555556 0.0
4.4444444444444447E-4 0.005666666666666667 0.0
4.4444444444444447E-4 0.0057777777777777775 0.0
4.4444444444444447E-4 0.005888888888888889 0.0
4.4444444444444447E-4 0.006 0.0
4.4444444444444447E-4 0.01711111111111111 0.0
4.4444444444444447E-4 0.028222222222222225 0.0
4.4444444444444447E-4 0.03933333333333333 0.0
4.4444444444444447E-4 0.050444444444444445 0.0
4.4444444444444447E-4 0.06155555555555556 0.0
4.4444444444444447E-4 0.07266666666666667 0.0
4.4444444444444447E-4 0.08377777777777778 0.0
4.4444444444444447E-4 0.0948888888888889 0.0
4.4444444444444447E-4 0.10600000000000001 0.0
4.4444444444444447E-4 0.10611111111111113 0.0
4.4444444444444447E-4 0.10622222222222223 0.0
4.4444444444444447E-4 0.10633333333333335 0.0
4.4444444444444447E-4 0.10644444444444445 0.0
4.4444444444444447E-4 0.10655555555555557 0.0
4.4444444444444447E-4 0.10666666666666667 0.0
4.4444444444444447E-4 0.10677777777777779 0.0
4.4444444444444447E-4 0.1068888888888889 0.0
4.4444444444444447E-4 0.10700000000000001 0.0
5.555555555555556E-4 0.0 0.0
5.555555555555556E-4 3.846153846153846E-4 0.0
5.555555555555556E-4 7.692307692307692E-4 0.0
5.555555555555556E-4 0.0011538461538461537 0.0
5.555555555555556E-4 0.0015384615384615385 0.0
5.555555555555556E-4 0.0019230769230769232 0.0
5.555555555555556E-4 0.0023076923076923075 0.0
5.555555555555556E-4 0.002692307692307692 0.0
5.555555555555556E-4 0.003076923076923077 0.0
5.555555555555556E-4 0.0034615384615384616 0.0
5.555555555555556E-4 0.0038461538461538464 0.0
5.555555555555556E-4 0.004230769230769231 0.0
5.555555555555556E-4 0.004615384615384615 0.0
5.555555555555556E-4 0.005 0.0
5.555555555555556E-4 0.005111111111111111 0.0
5.555555555555556E-4 0.005222222222222223 0.0
5.555555555555556E-4 0.005333333333333333 0.0
5.555555555555556E-4 0.0054444444444444445 0.0
5.555555555555556E-4 0.005555555555555556 0.0
5.555555555555556E-4 0.005666666666666667 0.0
5.555555555555556E-4 0.0057777777777777775 0.0
5.555555555555556E-4 0.005888888888888889 0.0
5.555555555555556E-4 0.006 0.0
5.555555555555556E-4 0.01711111111111111 0.0
5.555555555555556E-4 0.028222222222222225 0.0
5.555555555555556E-4 0.03933333333333333 0.0
5.555555555555556E-4 0.050444444444444445 0.0
5.555555555555556E-4 0.06155555555555556 0.0
[...]
POINT_DATA 1353
SCALARS Temperatura float 1
LOOKUP_TABLE default
71.98264012267371
71.84403771153181
71.70430187070292
71.56339708320748
71.42128127568212
71.27789769174026
71.13316950808473
70.98699058616899
70.83920922381871
70.68959267907087
70.53777473041433
70.38306170820238
70.22442359591118
70.05740999704466
69.88380878965256
69.71513677713347
69.54742786722421
69.37984805003552
69.21178890916997
69.04276037095069
68.87231427429909
68.7000209938673
68.52546234809665
48.51193955061745
48.30226454642377
48.3383729174973
48.32951111201884
48.33178266609655
48.33082615090259
48.332725619176784
48.32360791188905
47.59189214338833
47.585713726013076
47.579629583769446
47.5736294930836
47.5677038194066
47.561843937957285
47.55604253919459
47.55029382285659
47.54459360314654
47.538939355166136
71.9858049450527
71.8471964252801
71.70745349423416
71.56654206999208
71.42442013092229
71.2810311661622
71.13629865714576
70.99011725296768
70.84233587895227
70.69272693139246
70.54091742115112
70.38627717434758
70.22756013109911
70.06172888554823
69.89306751703397
69.72493675322099
69.55759199533152
69.39025481113228
69.22239863480227
69.05355645522299
68.88328953419595
68.711170548419
68.5367799646535
48.515881252770136
48.30860921383662
48.34409406079601
48.33539508044208
48.33762272583522
48.33668315220623
48.33855701886887
48.32952841079913
47.597537341472666
47.59136289597171
47.585282698818425
47.57928625886191
47.57336372540952
47.56750632032854
47.56170664002413
47.55595883604854
47.550258703463655
47.54460371244646
71.98911210261267
71.8505004725458
71.7107530988346
71.5698384778834
71.42771506094422
71.28432697637707
71.13959874673859
70.99342688818255
70.84566420484532
70.69608988619137
70.54434689211412
70.3898381911564
70.23135212731853
70.0669518560768
69.90064021514479
69.73426153035015
69.56789398028451
69.40131082756152
69.23411285365896
69.06589142938535
68.89623026746797
68.72470657242394
68.55089507932185
48.51604112418717
48.31606924106515
48.34966660959633
48.34146047638011
48.34355521381391
48.34266695889422
48.344463147819546
48.335705752872045
47.60318766078443
47.59702796296925
47.590962365913526
47.58497955137113
47.57906901309784
47.57322152204664
47.56742941144115
47.561686709373305
47.55598917096916
47.55033426265536
71.9925626421558
71.85394976251442
71.7142005916901
71.57328616714128
71.4311658754813
71.2877848623828
71.14306933294297
70.99691890542925
70.84919251041795
70.69968076354701
70.54805287351073
70.3937518340367
70.23573888546359
70.07273199469604
69.90825651741096
69.74352137941919
69.57851858491841
69.41309065273845
69.24695979739029
69.07977491226464
68.9111436760502
68.74064371509759
68.56783450686997
48.51240816488562
48.324649192997846
48.355088956679424
48.34770787235839
48.349579960469505
48.34877770362799
48.35044385996963
48.342140317874346
47.60884234669625
47.602709129658464
47.596669645940075
47.590711097553445
47.584821852043675
47.57899195697301
47.57321337012663
47.567479982934074
47.5617875394357
47.55613353378161
71.99615709297393
71.85754427356154
71.71779579015033
71.57688490132564
71.43477225713767
71.29140437683074
71.14670973152704
71.0005921548218
70.85291869868426
70.70349600208534
70.55202580061646
70.39801274341701
70.24062626548321
70.07898241466887
69.91619693486332
69.75310056670253
69.58963745324266
69.42566703433772
69.2609594367711
69.09520598270558
68.92803061170127
68.75900068330398
68.58764310031837
48.504964400622235
48.334356572096645
48.36035842949509
48.35413820227661
48.35569666899671
48.355015591509165
48.35649889856198
48.34883271446316
47.61450010218686
47.608406857771975
47.60240654173221
47.59648404011175
47.59062608307505
47.584821798520956
47.57906278543659
47.573342907807216
47.5676580157162
47.56200571211438
71.99989567615732
71.86128393767379
71.72153844112337
71.58063434470031
71.4385337637336
71.29518490196921
71.15051900507815
71.00444505728669
70.85684002694771
70.70753021212143
70.55625577927994
70.40260111338894
70.24593781177592
70.08565301057354
69.92453865218785
69.76312573391805
69.60134406943676
69.43906639900784
69.27609468060778
69.11215084160568
68.94686872088329
68.7797911882833
68.61038478629781
48.49368458951111
48.34520190341651
48.36547126490611
48.36075276912976
48.36190491262639
48.36138090220326
48.362627890947955
48.355783798036576
47.620159023308844
47.61412212664659
47.608176457048444
47.602303423746335
47.596487598353896
47.59071721003221
47.58498377895229
47.579281458861736
47.5736064452848
47.56795659298252
72.00377840316645
71.8651685997209
71.72542821851488
71.58453406467689
71.44244983321883
71.2991256617649
71.15449598179721
71.00847567476735
70.86095308086657
70.7117768827654
70.56073096869004
70.40749020515018
70.25161138989029
70.09269648337639
69.9332779534365
69.77361094755736
69.61363412787442
69.45324513417788
69.29228410569011
69.13051337093859
68.96758469575589
68.80300727824599
68.63614452976711
48.4785356729948
48.3571988907219
48.37042256387328
48.36755325851202
48.36820413001038
48.36787399343233
48.36883034004935
48.36299470025754
47.62581649204384
47.619856990890504
47.61398512265772
47.60817706190652
47.60241492907264
47.596686619283815
47.59098440121242
47.58530329848977
47.57964021993267
47.57399347168786
72.0078051261448
71.86919800545132
71.72946471740512
71.58858353462334
71.44651979017308
71.30322573515828
71.15863928611617
71.01268175987525
70.8652538963255
70.71622864993668
70.56543754349266
70.41265063504542
70.25759352734065
70.10006085818002
69.94236911404954
69.78450369148763
69.62642911290438
69.46808282093822
69.30936065588567
69.15009385482823
68.99000433938015
68.82858291475708
68.66503201048593
48.459475760929834
48.37036470020427
48.37520621088387
48.374541762026666
48.374593617464846
48.374495306687145
48.37510561033499
48.3704668779352
47.63146899806065
47.625615916895946
47.619842427508544
47.61411714965895
47.60841989637489
47.602740918332366
47.597074602573514
47.59141763877561
47.5857680922449
47.58012494466264
72.01197556629832
71.87337180045006
71.73364744981764
71.59278213649277
71.45074285325106
71.30748407185656
71.16294737191056
71.01706081546243
70.86973810595056
70.72087749637473
70.57036025449169
70.41805239521481
70.26383564664971
70.10768896504055
69.95174055345701
69.7957083595143
69.63959427796615
69.483388474106
69.32706162535838
69.17055082426113
69.01372620208684
68.85631057320357
68.69718870726007
48.436452195219324
48.384720494184634
48.379814725226446
48.38172081950387
48.38107251545082
48.381245376715114
48.38145290472734
48.378202193992905
47.63711184222603
47.631407448882015
47.62576871176602
47.62014165411107
47.61451796824119
47.608893381914505
47.60326599596386
47.59763495024328
47.59199986795152
47.58636059849459
72.01628933190749
71.8776895331994
71.7379758426556
71.59712916344934
71.45511814331064
71.31189950977694
71.167418557517
71.0216101636643
70.87440108464978
70.72571499019129
70.57548309464171
70.42366573744954
70.27029203364538
70.11552013169988
69.9613054348654
69.80710280801719
69.65295683768582
69.49891709263345
69.34504036254326
69.19139393063318
69.0380606566956
68.88514757713263
50.229077715052306
50.229077715052306
50.229077715052306
50.229077715052306
50.229077715052306
50.229077715052306
50.229077715052306
50.229077715052306
50.229077715052306
50.229077715052306
47.63728582969046
47.631795499158684
47.62627446862757
47.620727751461686
47.615159103894236
47.60957133440332
47.60396648989297
47.598345967735995
47.5927105833113
72.77039241102868
72.63323912256654
72.49756611410254
72.36338937021752
72.23073539411064
72.09964134392796
71.97015521873665
71.84233599386678
71.7162535027621
71.59198767002431
71.46962631400172
71.34926004866206
71.23097230042266
71.11482362147976
71.00073901045188
70.88689567955284
70.77329180042473
70.65992427506407
70.54678812670812
70.43387561150632
70.32117484188902
70.20866746274508
50.229077715052306
50.229077715052306
50.229077715052306
50.229077715052306
50.229077715052306
50.229077715052306
50.229077715052306
50.229077715052306
50.229077715052306
50.229077715052306
48.40358205740758
48.39571577132534
48.388129814884685
48.38082214637888
48.373791162762004
48.36703561525141
48.36055455829377
48.354347318690316
48.34841347690604
73.27284684227477
73.13547025550959
72.99891295822276
72.8631690153478
72.72822832974094
72.59407649224279
72.46069457144347
72.32805886829152
72.19614068807076
72.06490623450318
71.93431683644454
71.8043299073298
71.67490118566351
71.54598850907342
71.41833646919468
71.29078367592503
71.16332788258858
71.03596714780451
70.90869999815135
70.78152566620203
70.65444446023162
70.5274583889917
50.229077715052306
50.229077715052306
50.229077715052306
50.229077715052306
50.229077715052306
50.229077715052306
50.229077715052306
50.229077715052306
50.229077715052306
50.229077715052306
48.41294938302809
48.40661007826524
48.400340809500584
48.394142401406334
48.38801551260999
48.38196065892995
48.375978227536926
48.37006848559552
48.36423158553266
73.53665595700532
73.3993054931012
73.2627204289671
73.12690261295488
72.99185507046347
72.85758208221323
72.72408929501299
72.59138385939372
72.45947458137542
72.32837206167419
72.19808876696905
72.06863892586135
71.940038099894
71.81230235496187
71.68602682022548
71.55988786795824
71.43388668309348
71.308024380686
71.18230196324255
71.05672025771999
70.93127981703113
70.80598075287739
50.229077715052306
50.229077715052306
50.229077715052306
50.229077715052306
50.229077715052306
50.229077715052306
50.229077715052306
50.229077715052306
50.229077715052306
50.229077715052306
48.41286903251567
48.40614231730996
48.399539909271525
48.39306148067461
48.38670676069573
48.38047552894558
48.37436761148251
48.36838287835059
48.362521242064346
73.68524468320197
73.54789251583115
73.41124036487231
73.27528783714578
73.14003416070021
73.00547815290685
72.87161817498531
72.7384520739667
72.60597711487395
72.47418990955843
72.3430863563362
72.2126616187253
72.08291018351503
71.95382601937304
71.8260972793564
71.69848511315423
71.57098901054016
71.44360847541135
71.31634303678734
71.18919226529087
71.06215579919326
70.9352333889497
50.229077715052306
50.229077715052306
50.229077715052306
50.229077715052306
50.229077715052306
50.229077715052306
50.229077715052306
50.229077715052306
50.229077715052306
50.229077715052306
48.41286964164795
48.40624411720714
48.39972847975904
48.39332280890684
48.38702716560221
48.380841593963574
48.374766122412034
48.36880076438289
48.36294551876833
73.76453445318549
73.62718117802224
73.49049323026941
73.35447083492224
73.21911428303858
73.08442394330542
72.95040027864452
72.81704386778448
72.68435543130467
72.55233586071961
72.42098624712062
72.29030790205036
72.16030235994373
72.03097135633338
71.90300471235977
71.77515666465041
71.64742738500546
71.51981704247495
71.39232580057079
71.2649538129954
71.1377012167834
71.0105681204444
50.229077715052306
50.229077715052306
50.229077715052306
50.229077715052306
50.229077715052306
50.229077715052306
50.229077715052306
50.229077715052306
50.229077715052306
50.229077715052306
48.41287877598214
48.40622673068754
48.39968841680539
48.39326377879516
48.386952766939366
48.38075533682556
48.37467144901777
48.36870106884749
48.36284416628214
73.80329232967374
73.66593933895963
73.52923622439366
73.39318306566275
73.25777990367133
73.12302673640608
72.988923512952
72.85547012559942
72.72266640007642
72.59051208418612
72.45900683569609
72.32815021142228
72.19794166043089
72.06838052295687
71.94016987921333
71.81207513932188
71.68409624515445
71.5562331386772
71.42848576267762
71.30085406191735
71.1733379850271
71.04593748783553
50.229077715052306
50.229077715052306
50.229077715052306
50.229077715052306
50.229077715052306
50.229077715052306
50.229077715052306
50.229077715052306
50.229077715052306
50.229077715052306
48.41287409789742
48.406229133227924
48.39969685539904
48.393277252895686
48.386970312169616
48.38077601779811
48.37469435258638
48.36872529763382
48.362868832376286
73.81485428379754
73.67750106368224
73.54079251078383
73.40472875032869
73.26930990401567
73.13453609239937
73.00040743836117
72.86692407173456
72.7340861351161
72.60189379078234
72.47034722835878
72.33944667234451
72.20919238809921
72.07958468554108
71.9513278026469
71.82318695157845
71.69516217404393
71.56725351167215
71.43946100568105
71.31178469633306
71.18422462201809
71.05678081761782
50.229077715052306
50.229077715052306
50.229077715052306
50.229077715052306
50.229077715052306
50.229077715052306
50.229077715052306
50.229077715052306
50.229077715052306
50.229077715052306
48.41287620471719
48.40622892815529
48.39969468605244
48.39327344964932
48.38696519120125
48.38076988389419
48.37468750178989
48.36871801979
48.36286141361297
73.80329232967352
73.66593933895942
73.5292362243934
73.39318306566243
73.25777990367088
73.12302673640545
72.98892351295125
72.8554701255986
72.72266640007551
72.59051208418505
72.45900683569481
72.32815021142078
72.19794166042915
72.06838052295487
71.94016987921108
71.8120751393194
71.68409624515179
71.55623313867436
71.42848576267463
71.30085406191427
71.17333798502396
71.04593748783233
50.229077715052306
50.229077715052306
50.229077715052306
50.229077715052306
50.229077715052306
50.229077715052306
50.229077715052306
50.229077715052306
50.229077715052306
50.229077715052306
48.41287409789271
48.40622913322321
48.39969685539432
48.39327725289095
48.38697031216486
48.38077601779332
48.37469435258157
48.368725297629005
48.362868832371475
73.7645344531887
73.62718117802547
73.49049323027265
73.35447083492552
73.21911428304195
73.08442394330888
72.950400278648
72.81704386778793
72.68435543130808
72.55233586072303
72.42098624712412
72.29030790205395
72.1603023599474
72.03097135633719
71.90300471236372
71.77515666465447
71.64742738500964
71.51981704247929
71.39232580057518
71.26495381299983
71.13770121678783
71.01056812044884
50.229077715052306
50.229077715052306
50.229077715052306
50.229077715052306
50.229077715052306
50.229077715052306
50.229077715052306
50.229077715052306
50.229077715052306
50.229077715052306
48.41287877596755
48.40622673067287
48.399688416790646
48.39326377878033
48.38695276692445
48.380755336810594
48.374671449002754
48.36870106883246
48.3628441662671
73.68524468320712
73.54789251583631
73.41124036487754
73.27528783715104
73.14003416070544
73.00547815291196
72.87161817499042
72.73845207397177
72.60597711487898
72.47418990956332
72.34308635634086
72.2126616187297
72.08291018351918
71.9538260193769
71.82609727936004
71.69848511315769
71.5709890105435
71.44360847541458
71.31634303679051
71.18919226529398
71.06215579919633
70.93523338895272
50.229077715052306
50.229077715052306
50.229077715052306
50.229077715052306
50.229077715052306
50.229077715052306
50.229077715052306
50.229077715052306
50.229077715052306
50.229077715052306
48.412869641646864
48.40624411720606
48.399728479757975
48.3933228089058
48.3870271656012
48.3808415939626
48.374766122411074
48.36880076438192
48.362945518767354
73.53665595701743
73.39930549311329
73.26272042897915
73.12690261296689
72.99185507047544
72.85758208222518
72.7240892950249
72.5913838594056
72.4594745813873
72.3283720616861
72.19808876698102
72.06863892587339
71.94003809990605
71.81230235497394
71.68602682023754
71.5598878679703
71.43388668310548
71.30802438069787
71.18230196325433
71.05672025773168
70.93127981704268
70.80598075288883
50.229077715052306
50.229077715052306
50.229077715052306
50.229077715052306
50.229077715052306
50.229077715052306
50.229077715052306
50.229077715052306
50.229077715052306
50.229077715052306
48.4128690325134
48.40614231730766
48.399539909269215
48.39306148067231
48.386706760693436
48.380475528943265
48.37436761148018
48.368382878348264
48.36252124206202
73.27284684229
73.13547025552484
72.99891295823808
72.86316901536318
72.72822832975643
72.59407649225837
72.46069457145913
72.32805886830725
72.19614068808654
72.06490623451901
71.93431683646041
71.80432990734576
71.67490118567959
71.54598850908964
71.41833646921108
71.29078367594158
71.16332788260527
71.0359671478214
70.90869999816834
70.78152566621911
70.65444446024877
70.52745838900886
50.229077715052306
50.229077715052306
50.229077715052306
50.229077715052306
50.229077715052306
50.229077715052306
50.229077715052306
50.229077715052306
50.229077715052306
50.229077715052306
48.41294938301854
48.406610078255625
48.40034080949091
48.39414240139662
48.38801551260025
48.38196065892021
48.3759782275272
48.37006848558582
48.36423158552297
72.77039241103246
72.63323912257032
72.49756611410632
72.36338937022131
72.23073539411443
72.09964134393171
71.97015521874032
71.84233599387039
71.71625350276568
71.59198767002789
71.46962631400532
71.34926004866567
71.23097230042626
71.11482362148335
71.00073901045545
70.88689567955637
70.77329180042823
70.65992427506747
70.54678812671149
70.43387561150965
70.32117484189226
70.20866746274827
50.229077715052306
50.229077715052306
50.229077715052306
50.229077715052306
50.229077715052306
50.229077715052306
50.229077715052306
50.229077715052306
50.229077715052306
50.229077715052306
48.40358205740851
48.39571577132626
48.388129814885595
48.38082214637979
48.37379116276289
48.367035615252256
48.360554558294574
48.35434731869108
48.34841347690679
72.01628933190784
71.87768953319976
71.73797584265593
71.59712916344962
71.45511814331091
71.31189950977723
71.1674185575174
71.02161016366475
70.87440108465029
70.72571499019186
70.57548309464232
70.42366573745021
70.27029203364613
70.11552013170065
69.96130543486619
69.80710280801804
69.65295683768674
69.4989170926345
69.34504036254435
69.1913939306343
69.03806065669677
68.88514757713382
50.229077715052306
50.229077715052306
50.229077715052306
50.229077715052306
50.229077715052306
50.229077715052306
50.229077715052306
50.229077715052306
50.229077715052306
50.229077715052306
47.63728582968316
47.63179549915146
47.6262744686204
47.620727751454545
47.61515910388714
47.609571334396264
47.60396648988597
47.59834596772902
47.592710583304324
72.01197556629873
71.87337180045043
71.73364744981795
71.592782136493
71.45074285325137
71.30748407185685
71.16294737191097
71.01706081546291
70.86973810595113
70.72087749637538
70.5703602544923
70.41805239521564
70.26383564665049
70.10768896504145
69.95174055345792
69.79570835951519
69.63959427796709
69.48338847410702
69.32706162535943
69.17055082426224
69.013726202088
68.85631057320477
68.6971887072613
48.43645219522496
48.38472049420517
48.37981472523415
48.38172081951099
48.3810725154792
48.381245376721786
48.381452904726125
48.37820219399415
47.637111842218665
47.63140744887468
47.625768711758745
47.620141654103854
47.61451796823399
47.60889338190734
47.60326599595674
47.59763495023619
47.59199986794444
47.58636059848752
72.00780512614531
71.86919800545171
71.72946471740546
71.58858353462357
71.44651979017343
71.30322573515856
71.15863928611655
71.0126817598758
70.86525389632617
70.71622864993738
70.56543754349326
70.41265063504623
70.25759352734151
70.10006085818094
69.94236911405046
69.7845036914886
69.62642911290537
69.46808282093924
69.30936065588674
69.15009385482931
68.99000433938124
68.82858291475826
68.66503201048714
48.45947576093555
48.37036470022488
48.37520621089154
48.37454176203385
48.37459361749335
48.3744953066938
48.3751056103338
48.3704668779364
47.63146899805325
47.6256159168886
47.619842427501204
47.61411714965165
47.60841989636762
47.602740918325125
47.597074602566316
47.591417638768434
47.58576809223771
47.58012494465549
72.00377840316692
71.86516859972131
71.72542821851523
71.58453406467711
71.44244983321917
71.29912566176516
71.1544959817976
71.00847567476795
70.8609530808673
70.71177688276613
70.56073096869069
70.40749020515106
70.25161138989124
70.09269648337737
69.93327795343752
69.77361094755838
69.61363412787544
69.45324513417893
69.29228410569117
69.13051337093967
68.967584695757
68.80300727824712
68.63614452976823
48.47853567300061
48.357198890742595
48.37042256388093
48.36755325851937
48.368204130038954
48.36787399343901
48.36883034004817
48.362994700258696
47.62581649203641
47.61985699088307
47.61398512265036