# vtk DataFile Version 2.0
Niestacjonarne zagadnienie cieplne - ogrzewanie wody w garnku stalowym
ASCII
DATASET UNSTRUCTURED_GRID
POINTS 1353 float
0.0 0.0 0.0
0.0 3.846153846153846E-4 0.0
0.0 7.692307692307692E-4 0.0
0.0 0.0011538461538461537 0.0
0.0 0.0015384615384615385 0.0
0.0 0.0019230769230769232 0.0
0.0 0.0023076923076923075 0.0
0.0 0.002692307692307692 0.0
0.0 0.003076923076923077 0.0
0.0 0.0034615384615384616 0.0
0.0 0.0038461538461538464 0.0
0.0 0.004230769230769231 0.0
0.0 0.004615384615384615 0.0
0.0 0.005 0.0
0.0 0.005111111111111111 0.0
0.0 0.005222222222222223 0.0
0.0 0.005333333333333333 0.0
0.0 0.0054444444444444445 0.0
0.0 0.005555555555555556 0.0
0.0 0.005666666666666667 0.0
0.0 0.0057777777777777775 0.0
0.0 0.005888888888888889 0.0
0.0 0.006 0.0
0.0 0.01711111111111111 0.0
0.0 0.028222222222222225 0.0
0.0 0.03933333333333333 0.0
0.0 0.050444444444444445 0.0
0.0 0.06155555555555556 0.0
0.0 0.07266666666666667 0.0
0.0 0.08377777777777778 0.0
0.0 0.0948888888888889 0.0
0.0 0.10600000000000001 0.0
0.0 0.10611111111111113 0.0
0.0 0.10622222222222223 0.0
0.0 0.10633333333333335 0.0
0.0 0.10644444444444445 0.0
0.0 0.10655555555555557 0.0
0.0 0.10666666666666667 0.0
0.0 0.10677777777777779 0.0
0.0 0.1068888888888889 0.0
0.0 0.10700000000000001 0.0
1.1111111111111112E-4 0.0 0.0
1.1111111111111112E-4 3.846153846153846E-4 0.0
1.1111111111111112E-4 7.692307692307692E-4 0.0
1.1111111111111112E-4 0.0011538461538461537 0.0
1.1111111111111112E-4 0.0015384615384615385 0.0
1.1111111111111112E-4 0.0019230769230769232 0.0
1.1111111111111112E-4 0.0023076923076923075 0.0
1.1111111111111112E-4 0.002692307692307692 0.0
1.1111111111111112E-4 0.003076923076923077 0.0
1.1111111111111112E-4 0.0034615384615384616 0.0
1.1111111111111112E-4 0.0038461538461538464 0.0
1.1111111111111112E-4 0.004230769230769231 0.0
1.1111111111111112E-4 0.004615384615384615 0.0
1.1111111111111112E-4 0.005 0.0
1.1111111111111112E-4 0.005111111111111111 0.0
1.1111111111111112E-4 0.005222222222222223 0.0
1.1111111111111112E-4 0.005333333333333333 0.0
1.1111111111111112E-4 0.0054444444444444445 0.0
1.1111111111111112E-4 0.005555555555555556 0.0
1.1111111111111112E-4 0.005666666666666667 0.0
1.1111111111111112E-4 0.0057777777777777775 0.0
1.1111111111111112E-4 0.005888888888888889 0.0
1.1111111111111112E-4 0.006 0.0
1.1111111111111112E-4 0.01711111111111111 0.0
1.1111111111111112E-4 0.028222222222222225 0.0
1.1111111111111112E-4 0.03933333333333333 0.0
1.1111111111111112E-4 0.050444444444444445 0.0
1.1111111111111112E-4 0.06155555555555556 0.0
1.1111111111111112E-4 0.07266666666666667 0.0
1.1111111111111112E-4 0.08377777777777778 0.0
1.1111111111111112E-4 0.0948888888888889 0.0
1.1111111111111112E-4 0.10600000000000001 0.0
1.1111111111111112E-4 0.10611111111111113 0.0
1.1111111111111112E-4 0.10622222222222223 0.0
1.1111111111111112E-4 0.10633333333333335 0.0
1.1111111111111112E-4 0.10644444444444445 0.0
1.1111111111111112E-4 0.10655555555555557 0.0
1.1111111111111112E-4 0.10666666666666667 0.0
1.1111111111111112E-4 0.10677777777777779 0.0
1.1111111111111112E-4 0.1068888888888889 0.0
1.1111111111111112E-4 0.10700000000000001 0.0
2.2222222222222223E-4 0.0 0.0
2.2222222222222223E-4 3.846153846153846E-4 0.0
2.2222222222222223E-4 7.692307692307692E-4 0.0
2.2222222222222223E-4 0.0011538461538461537 0.0
2.2222222222222223E-4 0.0015384615384615385 0.0
2.2222222222222223E-4 0.0019230769230769232 0.0
2.2222222222222223E-4 0.0023076923076923075 0.0
2.2222222222222223E-4 0.002692307692307692 0.0
2.2222222222222223E-4 0.003076923076923077 0.0
2.2222222222222223E-4 0.0034615384615384616 0.0
2.2222222222222223E-4 0.0038461538461538464 0.0
2.2222222222222223E-4 0.004230769230769231 0.0
2.2222222222222223E-4 0.004615384615384615 0.0
2.2222222222222223E-4 0.005 0.0
2.2222222222222223E-4 0.005111111111111111 0.0
2.2222222222222223E-4 0.005222222222222223 0.0
2.2222222222222223E-4 0.005333333333333333 0.0
2.2222222222222223E-4 0.0054444444444444445 0.0
2.2222222222222223E-4 0.005555555555555556 0.0
2.2222222222222223E-4 0.005666666666666667 0.0
2.2222222222222223E-4 0.0057777777777777775 0.0
2.2222222222222223E-4 0.005888888888888889 0.0
2.2222222222222223E-4 0.006 0.0
2.2222222222222223E-4 0.01711111111111111 0.0
2.2222222222222223E-4 0.028222222222222225 0.0
2.2222222222222223E-4 0.03933333333333333 0.0
2.2222222222222223E-4 0.050444444444444445 0.0
2.2222222222222223E-4 0.06155555555555556 0.0
2.2222222222222223E-4 0.07266666666666667 0.0
2.2222222222222223E-4 0.08377777777777778 0.0
2.2222222222222223E-4 0.0948888888888889 0.0
2.2222222222222223E-4 0.10600000000000001 0.0
2.2222222222222223E-4 0.10611111111111113 0.0
2.2222222222222223E-4 0.10622222222222223 0.0
2.2222222222222223E-4 0.10633333333333335 0.0
2.2222222222222223E-4 0.10644444444444445 0.0
2.2222222222222223E-4 0.10655555555555557 0.0
2.2222222222222223E-4 0.10666666666666667 0.0
2.2222222222222223E-4 0.10677777777777779 0.0
2.2222222222222223E-4 0.1068888888888889 0.0
2.2222222222222223E-4 0.10700000000000001 0.0
3.333333333333334E-4 0.0 0.0
3.333333333333334E-4 3.846153846153846E-4 0.0
3.333333333333334E-4 7.692307692307692E-4 0.0
3.333333333333334E-4 0.0011538461538461537 0.0
3.333333333333334E-4 0.0015384615384615385 0.0
3.333333333333334E-4 0.0019230769230769232 0.0
3.333333333333334E-4 0.0023076923076923075 0.0
3.333333333333334E-4 0.002692307692307692 0.0
3.333333333333334E-4 0.003076923076923077 0.0
3.333333333333334E-4 0.0034615384615384616 0.0
3.333333333333334E-4 0.0038461538461538464 0.0
3.333333333333334E-4 0.004230769230769231 0.0
3.333333333333334E-4 0.004615384615384615 0.0
3.333333333333334E-4 0.005 0.0
3.333333333333334E-4 0.005111111111111111 0.0
3.333333333333334E-4 0.005222222222222223 0.0
3.333333333333334E-4 0.005333333333333333 0.0
3.333333333333334E-4 0.0054444444444444445 0.0
3.333333333333334E-4 0.005555555555555556 0.0
3.333333333333334E-4 0.005666666666666667 0.0
3.333333333333334E-4 0.0057777777777777775 0.0
3.333333333333334E-4 0.005888888888888889 0.0
3.333333333333334E-4 0.006 0.0
3.333333333333334E-4 0.01711111111111111 0.0
3.333333333333334E-4 0.028222222222222225 0.0
3.333333333333334E-4 0.03933333333333333 0.0
3.333333333333334E-4 0.050444444444444445 0.0
3.333333333333334E-4 0.06155555555555556 0.0
3.333333333333334E-4 0.07266666666666667 0.0
3.333333333333334E-4 0.08377777777777778 0.0
3.333333333333334E-4 0.0948888888888889 0.0
3.333333333333334E-4 0.10600000000000001 0.0
3.333333333333334E-4 0.10611111111111113 0.0
3.333333333333334E-4 0.10622222222222223 0.0
3.333333333333334E-4 0.10633333333333335 0.0
3.333333333333334E-4 0.10644444444444445 0.0
3.333333333333334E-4 0.10655555555555557 0.0
3.333333333333334E-4 0.10666666666666667 0.0
3.333333333333334E-4 0.10677777777777779 0.0
3.333333333333334E-4 0.1068888888888889 0.0
3.333333333333334E-4 0.10700000000000001 0.0
4.4444444444444447E-4 0.0 0.0
4.4444444444444447E-4 3.846153846153846E-4 0.0
4.4444444444444447E-4 7.692307692307692E-4 0.0
4.4444444444444447E-4 0.0011538461538461537 0.0
4.4444444444444447E-4 0.0015384615384615385 0.0
4.4444444444444447E-4 0.0019230769230769232 0.0
4.4444444444444447E-4 0.0023076923076923075 0.0
4.4444444444444447E-4 0.002692307692307692 0.0
4.4444444444444447E-4 0.003076923076923077 0.0
4.4444444444444447E-4 0.0034615384615384616 0.0
4.4444444444444447E-4 0.0038461538461538464 0.0
4.4444444444444447E-4 0.004230769230769231 0.0
4.4444444444444447E-4 0.004615384615384615 0.0
4.4444444444444447E-4 0.005 0.0
4.4444444444444447E-4 0.005111111111111111 0.0
4.4444444444444447E-4 0.005222222222222223 0.0
4.4444444444444447E-4 0.005333333333333333 0.0
4.4444444444444447E-4 0.0054444444444444445 0.0
4.4444444444444447E-4 0.005555555555555556 0.0
4.4444444444444447E-4 0.005666666666666667 0.0
4.4444444444444447E-4 0.0057777777777777775 0.0
4.4444444444444447E-4 0.005888888888888889 0.0
4.4444444444444447E-4 0.006 0.0
4.4444444444444447E-4 0.01711111111111111 0.0
4.4444444444444447E-4 0.028222222222222225 0.0
4.4444444444444447E-4 0.03933333333333333 0.0
4.4444444444444447E-4 0.050444444444444445 0.0
4.4444444444444447E-4 0.06155555555555556 0.0
4.4444444444444447E-4 0.07266666666666667 0.0
4.4444444444444447E-4 0.08377777777777778 0.0
4.4444444444444447E-4 0.0948888888888889 0.0
4.4444444444444447E-4 0.10600000000000001 0.0
4.4444444444444447E-4 0.10611111111111113 0.0
4.4444444444444447E-4 0.10622222222222223 0.0
4.4444444444444447E-4 0.10633333333333335 0.0
4.4444444444444447E-4 0.10644444444444445 0.0
4.4444444444444447E-4 0.10655555555555557 0.0
4.4444444444444447E-4 0.10666666666666667 0.0
4.4444444444444447E-4 0.10677777777777779 0.0
4.4444444444444447E-4 0.1068888888888889 0.0
4.4444444444444447E-4 0.10700000000000001 0.0
5.555555555555556E-4 0.0 0.0
5.555555555555556E-4 3.846153846153846E-4 0.0
5.555555555555556E-4 7.692307692307692E-4 0.0
5.555555555555556E-4 0.0011538461538461537 0.0
5.555555555555556E-4 0.0015384615384615385 0.0
5.555555555555556E-4 0.0019230769230769232 0.0
5.555555555555556E-4 0.0023076923076923075 0.0
5.555555555555556E-4 0.002692307692307692 0.0
5.555555555555556E-4 0.003076923076923077 0.0
5.555555555555556E-4 0.0034615384615384616 0.0
5.555555555555556E-4 0.0038461538461538464 0.0
5.555555555555556E-4 0.004230769230769231 0.0
5.555555555555556E-4 0.004615384615384615 0.0
5.555555555555556E-4 0.005 0.0
5.555555555555556E-4 0.005111111111111111 0.0
5.555555555555556E-4 0.005222222222222223 0.0
5.555555555555556E-4 0.005333333333333333 0.0
5.555555555555556E-4 0.0054444444444444445 0.0
5.555555555555556E-4 0.005555555555555556 0.0
5.555555555555556E-4 0.005666666666666667 0.0
5.555555555555556E-4 0.0057777777777777775 0.0
5.555555555555556E-4 0.005888888888888889 0.0
5.555555555555556E-4 0.006 0.0
5.555555555555556E-4 0.01711111111111111 0.0
5.555555555555556E-4 0.028222222222222225 0.0
5.555555555555556E-4 0.03933333333333333 0.0
5.555555555555556E-4 0.050444444444444445 0.0
5.555555555555556E-4 0.06155555555555556 0.0
[...]
POINT_DATA 1353
SCALARS Temperatura float 1
LOOKUP_TABLE default
70.03671675367839
69.89772351500909
69.7576171568157
69.61636238500037
69.47391751699317
69.33022639907888
69.18521310858084
69.03877288314996
68.8907561884279
68.74093402290734
68.58894635041798
68.43411338894406
68.27542253547746
68.10855609878988
67.935315941218
67.76679199189286
67.59916378285597
67.43162032501381
67.26356664227681
67.09452065597777
66.92403979351568
66.75169870599122
66.57708275828362
46.54427977398511
46.33419210636123
46.37037992185973
46.361501119062105
46.3637711148051
46.362837984977695
46.36463511536002
46.356094757618116
45.66839084212144
45.662612763654984
45.65692479206712
45.651317820911096
45.6457832653087
45.64031343829064
45.63490182405864
45.62954325157552
45.624233988663704
45.618971783533944
70.03976518767082
69.90076581407014
69.76065233450252
69.6193908891421
69.47693984556571
69.33324329194505
69.18822560510075
69.04178279173668
68.8937659434266
68.74395104132329
68.59197163338429
68.43720913192553
68.27844365035214
68.11271598338237
67.9442261555917
67.77622542562956
67.60895057617029
67.44164409369493
67.27378968874187
67.10492741710324
66.93462366816435
66.76245514584501
66.58800570311587
46.54781737552091
46.34013552315214
46.37569910026284
46.36698328296644
46.369209411347555
46.36829289462285
46.3700657388046
46.36160934536146
45.6736459609998
45.66787136069362
45.66218684713806
45.65658307457482
45.65105126479178
45.6455835936349
45.64017346116211
45.63481565323089
45.6295064205478
45.62424350692672
70.0429548380511
69.90395232180146
69.76383435025599
69.62256963962473
69.48011702536728
69.33642122509052
69.19140763668699
69.04497409724068
68.89697549428304
68.74719447030228
68.59528016246956
68.44064634862833
68.28210721566164
68.11776294612629
67.95154224086919
67.78523703902334
67.61891407785895
67.45234626160452
67.28513977790914
67.11689071891212
66.94718677737116
66.77560852303493
66.60173363832047
46.547569724944715
46.34719673399005
46.38087066015524
46.37264817736833
46.37474152304027
46.373875328356206
46.375574487898405
46.367373653259236
45.67891277525101
45.67315124549986
45.66747967963978
45.66188799217477
45.65636681849102
45.65090793102176
45.64550449434968
45.64015118388345
45.63484421463066
45.62958132708099
70.04628675299675
69.90728294881394
69.7671631128708
69.62589849867685
69.48344886895495
69.3397599424757
69.19475876776542
69.0483462219282
68.90038319140024
68.75066351587854
68.59886198375087
68.44443167773528
68.28635458092064
68.12336311072484
67.95892569040923
67.79422004346343
67.62923055681519
67.4637970734397
67.29764269251373
67.13041872304878
66.96173545702824
66.7911730238437
66.61829323807542
46.54352585511425
46.35538029713515
46.38589299605627
46.37849637441708
46.38036728184707
46.37958541532478
46.3811612276605
46.3733880336168
45.68419060345259
45.67845259272121
45.67280423181413
45.66723411178857
45.6617318605264
45.656288603167226
45.65089716832096
45.64555210915129
45.64024963083021
45.63498749872656
70.04976146412643
69.91075767589514
69.77063844239713
69.6293772331884
69.48693506348972
69.34325900380315
69.19827832585055
69.05189803725287
68.90398697944106
68.75435468270483
68.60270776816294
68.44855970373469
68.29109476926878
68.12943209071727
67.96664469950868
67.80354186072366
67.64006268525463
67.47606391360918
67.31131512338682
67.14550845372311
66.97826929585713
66.80916666178142
66.63772913147581
46.53566784396871
46.36469370446984
46.39076343796927
46.38452880725721
46.38608639332807
46.385423354591715
46.38682571964406
46.379653049175225
45.689478273764394
45.68377580318145
45.67816228283478
45.672624232421725
45.66714981470332
45.661729331537394
45.656355290340834
45.65102221983944
45.64572642030393
45.640465754595155
70.05337919579638
69.91437643841243
69.77426008951598
69.63300551204183
69.49057517308259
69.3469178009445
69.20196538948564
69.05562799355873
68.90778416807402
68.75826269259909
68.60680782171599
68.45301103514048
68.29625361868916
68.13592046785834
67.9747714334636
67.81332144505492
67.65149687928417
67.48916825990314
67.32613659346073
67.16212383973813
66.99676447633595
66.82960231401982
66.66010495290311
46.52397051718179
46.37514746756714
46.39547822585018
46.390746777812495
46.39189843393888
46.39138941712116
46.392567617257505
46.38616948909436
45.69477406620878
45.68912173456098
45.683556858799534
45.6780628489276
45.672625934755466
45.66723561267522
45.66188431933436
45.656566843373476
45.6512797945628
45.64602126128745
70.05713996365446
69.91813908556381
69.77802773294313
69.6367829084927
69.49436864358445
69.35073556979464
69.20581880671973
69.05953418837967
68.9117714087118
68.76238116737342
68.61115053783315
68.45775953803309
68.30177056991657
68.14278117306655
67.98329968603639
67.82356862842622
67.66352427785995
67.50306256100941
67.34202265177741
67.18016656136818
67.0171461907938
66.8524711356186
66.68550532430181
46.508400894502905
46.38675527502999
46.40003246397325
46.39715197035758
46.397802846458404
46.39748394904011
46.398386458079344
46.39293839537366
45.700075616877555
45.69449219781309
45.68899305985032
45.68355692752307
45.67816783143089
45.67281496392332
45.667491434474705
45.66219281124929
45.656916342791476
45.65166052159976
70.06104362493126
69.92204536834724
69.78194097356314
69.64070890290195
69.49831480892733
69.3547114032575
69.20983722503958
69.06361441517093
68.915944813657
68.76670289040979
68.61572236898719
68.46277647248294
68.30759325698686
68.14996234244427
67.99218229372875
67.834228324583
67.67606331885457
67.51762344894635
67.35880371380064
67.19943490550328
67.03923880386965
66.87770619015453
66.71403954978351
46.48891717007162
46.399534277466486
46.40442004003354
46.403746474986676
46.403798932317216
46.403707376965265
46.40428165125237
46.3999611065511
45.70537975871896
45.6998911441175
45.694479689494294
45.689117358964786
45.683786054772945
45.678477101935705
45.67318550884076
45.66790833553778
45.66264386573231
45.65739119650613
70.0650899067945
69.92609493848822
69.78599933014908
69.64478288527454
69.50241289839478
69.35884426670454
69.21401912386855
69.06786622172075
68.92030009921716
68.77122000346826
68.62050837471551
68.46803245242286
68.31367392319669
68.15740688572926
68.00134675308004
67.84520321301574
67.68897709758939
67.53265768703602
67.37621498752345
67.21958562806493
67.06263944536637
66.90509913113647
66.74584871672147
46.4654667716314
46.41350562235297
46.40863347612763
46.41053282986199
46.409885838242914
46.410060216816575
46.41025245687585
46.40723932953802
45.71068225871432
45.70532599367221
45.700034986436776
45.694760193349346
45.68949441160083
45.68423386864586
45.67897689672972
45.673722748090775
45.66847110030214
45.66322182681993
70.06927842433365
69.93028735146723
69.7902022372453
69.64900415778752
69.50666204456226
69.3631330150453
69.21836284885116
69.07228697776553
68.92483272808327
68.77592424093963
68.62549287161298
68.47349831491518
68.31996750973398
68.16505420236763
68.01070556865265
67.8563698866137
67.7020911728537
67.54791846009675
67.3939080476364
67.24012678023442
67.0866571323047
66.9336058044912
48.19740178312848
48.19740178312848
48.19740178312848
48.19740178312848
48.19740178312848
48.19740178312848
48.19740178312848
48.19740178312848
48.19740178312848
48.19740178312848
45.7108460345042
45.70568711864977
45.7005067689342
45.69530950695861
45.69009872610983
45.684876965865406
45.679646078134496
45.674407327456706
45.66916145142774
70.80947917038318
70.67191914879061
70.53583395715098
70.40123942353388
70.26816179003761
70.13663784815289
70.00671512466857
69.87845201987331
69.7519176993066
69.62719135195097
69.50436004948618
69.38351376523494
69.26473558828616
69.1480862250667
69.03349972240875
68.91915444203087
68.80504861105958
68.69117917755977
68.57754119837551
68.46412694920865
68.350924547757
68.23791563087853
48.19740178312848
48.19740178312848
48.19740178312848
48.19740178312848
48.19740178312848
48.19740178312848
48.19740178312848
48.19740178312848
48.19740178312848
48.19740178312848
46.43114816540293
46.423746802994245
46.41661710863527
46.409757210174135
46.40316563370956
46.396841228721144
46.39078312244937
46.38499069226634
46.37946354893996
71.3032054001059
71.16542440170497
71.0284655561904
70.8923229919787
70.75698671836317
70.62244247697589
70.48867153318527
70.35565043203421
70.22335077014372
70.09173908611888
69.96077707548481
69.83042252237354
69.70063149054036
69.57136204951884
69.44335931101374
69.31545699848814
69.18765287853358
69.05994502583005
68.9323319866276
68.80481301721332
68.67738845369017
68.55006033650078
48.19740178312848
48.19740178312848
48.19740178312848
48.19740178312848
48.19740178312848
48.19740178312848
48.19740178312848
48.19740178312848
48.19740178312848
48.19740178312848
46.43991082013089
46.43394689384478
46.428056804838185
46.42224131410898
46.41650103029079
46.41083643028817
46.40524787195072
46.39973560181774
46.394299759843825
71.56229902449984
71.42454390194561
71.28755846568517
71.15134454861938
71.01590514927946
70.88124450934156
70.74736822340721
70.61428337555783
70.48199869023544
70.35052467134713
70.21987367541068
70.09005981353904
69.96109853425604
69.83300580638732
69.70637814649993
69.57988803832635
69.45353665910362
69.32732511535072
69.20125439997234
69.07532532913272
68.94953844373225
68.82389384229593
48.19740178312848
48.19740178312848
48.19740178312848
48.19740178312848
48.19740178312848
48.19740178312848
48.19740178312848
48.19740178312848
48.19740178312848
48.19740178312848
46.43983386709022
46.433505181370116
46.427301396129955
46.42122220494479
46.41526735388984
46.409436635786356
46.40372988662703
46.39814698336447
46.392687842548476
71.708237021016
71.57048021032658
71.43342883299498
71.29708250266032
71.16144045820452
71.02650153215913
70.89226410565288
70.75872605087426
70.62588466375766
70.49373659317845
70.36227778048135
70.23150343705763
70.1014080997472
69.97198578686778
69.84392489546556
69.71598176150364
69.58815587952596
69.46044675846463
69.33285393270339
69.20537697859577
69.07801554052298
68.95076937541909
48.19740178312848
48.19740178312848
48.19740178312848
48.19740178312848
48.19740178312848
48.19740178312848
48.19740178312848
48.19740178312848
48.19740178312848
48.19740178312848
46.439834436207676
46.433601022969185
46.427478942714465
46.42146826782453
46.4155690534024
46.40978133889422
46.40410514911029
46.39854049486604
46.393087373381356
71.78610021628965
71.64834231256549
71.51125576857578
71.37484080988615
71.23909772760042
71.1040268898132
70.9696287580585
70.83590390868818
70.70285305870254
70.57047709464103
70.43877710113362
70.3077543819462
70.17741046297961
70.04774707099818
69.91945409675057
69.79128091219796
69.66322768830614
69.53529459321108
69.40748178941197
69.27978942948828
69.15221764923612
69.02476655581209
48.19740178312848
48.19740178312848
48.19740178312848
48.19740178312848
48.19740178312848
48.19740178312848
48.19740178312848
48.19740178312848
48.19740178312848
48.19740178312848
46.43984302534102
46.43358464244932
46.427441209620234
46.42141267325368
46.41549898514923
46.40970010204302
46.40401598531171
46.3984466007835
46.392991918619096
71.82415841067123
71.68640078915269
71.54929936041499
71.4128542060836
71.27706536945314
71.1419328513928
71.00745660441905
70.87363652487464
70.74047244324423
70.60796411287599
70.4761111979336
70.34491326247638
70.21436976355466
70.08448005003822
69.95594707326995
69.82753122930572
69.69923246099793
69.57105071132133
69.44298592410613
69.31503804519471
69.18720702433882
69.05949281852884
48.19740178312848
48.19740178312848
48.19740178312848
48.19740178312848
48.19740178312848
48.19740178312848
48.19740178312848
48.19740178312848
48.19740178312848
48.19740178312848
46.43983861848994
46.43358690205026
46.427449152875795
46.42142535847445
46.41551550445713
46.40971957468005
46.40403755133731
46.39846941502102
46.393015144759715
71.83551102439115
71.69775317615253
71.56064640325071
71.42419083239379
71.28838658685481
71.1532337888314
71.01873256288366
70.88488304051663
70.75168536594038
70.61913970293244
70.48724624245992
70.35600521018623
70.22541687248811
70.09548154017155
69.96690328804694
69.83844229955686
69.71009861653975
69.5818722807401
69.45376333347357
69.32577181508023
69.19789776400597
69.07014121516634
48.19740178312848
48.19740178312848
48.19740178312848
48.19740178312848
48.19740178312848
48.19740178312848
48.19740178312848
48.19740178312848
48.19740178312848
48.19740178312848
46.43984060112424
46.43358670803238
46.427447109266176
46.42142177621181
46.415510681194476
46.40971379740295
46.404031098839816
46.39846256028886
46.39300815729402
71.8241584106711
71.68640078915253
71.54929936041479
71.41285420608335
71.27706536945279
71.14193285139227
71.0074566044184
70.8736365248739
70.7404724432434
70.60796411287502
70.47611119793244
70.34491326247499
70.21436976355304
70.08448005003636
69.95594707326786
69.82753122930342
69.69923246099545
69.57105071131865
69.44298592410328
69.31503804519176
69.18720702433582
69.05949281852578
48.19740178312848
48.19740178312848
48.19740178312848
48.19740178312848
48.19740178312848
48.19740178312848
48.19740178312848
48.19740178312848
48.19740178312848
48.19740178312848
46.439838618485474
46.43358690204579
46.427449152871326
46.421425358469975
46.415515504452635
46.409719574675506
46.404037551332735
46.39846941501645
46.393015144755154
71.78610021629285
71.64834231256869
71.511255768579
71.37484080988942
71.23909772760375
71.10402688981661
70.96962875806193
70.83590390869156
70.7028530587059
70.57047709464442
70.43877710113709
70.30775438194976
70.17741046298326
70.04774707100196
69.91945409675448
69.79128091220196
69.66322768831023
69.53529459321533
69.4074817894163
69.27978942949265
69.15221764924047
69.0247665558164
48.19740178312848
48.19740178312848
48.19740178312848
48.19740178312848
48.19740178312848
48.19740178312848
48.19740178312848
48.19740178312848
48.19740178312848
48.19740178312848
46.43984302532699
46.43358464243522
46.427441209606066
46.42141267323943
46.41549898513488
46.40970010202863
46.404015985297285
46.398446600769056
46.39299191860464
71.70823702102115
71.57048021033172
71.43342883300016
71.29708250266553
71.16144045820971
71.0265015321642
70.89226410565793
70.75872605087928
70.62588466376262
70.49373659318326
70.36227778048594
70.23150343706197
70.10140809975131
69.97198578687161
69.84392489546917
69.71598176150708
69.5881558795293
69.46044675846787
69.33285393270654
69.20537697859885
69.07801554052605
68.95076937542215
48.19740178312848
48.19740178312848
48.19740178312848
48.19740178312848
48.19740178312848
48.19740178312848
48.19740178312848
48.19740178312848
48.19740178312848
48.19740178312848
46.439834436206674
46.43360102296819
46.42747894271348
46.42146826782356
46.41556905340147
46.40978133889333
46.40410514910942
46.39854049486515
46.39308737338047
71.56229902451167
71.42454390195745
71.28755846569697
71.15134454863113
71.01590514929119
70.88124450935327
70.74736822341887
70.61428337556946
70.48199869024708
70.35052467135883
70.21987367542243
70.09005981355085
69.96109853426786
69.83300580639917
69.70637814651175
69.57988803833818
69.45353665911537
69.32732511536233
69.2012543999839
69.0753253291442
68.94953844374359
68.82389384230716
48.19740178312848
48.19740178312848
48.19740178312848
48.19740178312848
48.19740178312848
48.19740178312848
48.19740178312848
48.19740178312848
48.19740178312848
48.19740178312848
46.439833867088126
46.433505181368
46.42730139612783
46.42122220494266
46.41526735388769
46.40943663578418
46.40372988662485
46.398146983362295
46.39268784254631
71.3032054001208
71.16542440171987
71.02846555620538
70.89232299199377
70.75698671837831
70.62244247699113
70.48867153320059
70.3556504320496
70.22335077015917
70.09173908613437
69.96077707550033
69.83042252238911
69.70063149055606
69.57136204953467
69.44335931102972
69.31545699850427
69.18765287854986
69.05994502584649
68.93233198664412
68.80481301722992
68.67738845370684
68.55006033651746
48.19740178312848
48.19740178312848
48.19740178312848
48.19740178312848
48.19740178312848
48.19740178312848
48.19740178312848
48.19740178312848
48.19740178312848
48.19740178312848
46.439910820121746
46.43394689383557
46.428056804828934
46.422241314099686
46.41650103028148
46.410836430278856
46.40524787194142
46.39973560180847
46.39429975983457
70.80947917038684
70.67191914879426
70.53583395715464
70.40123942353755
70.26816179004125
70.13663784815648
70.0067151246721
69.87845201987678
69.75191769931004
69.6271913519544
69.50436004948963
69.3835137652384
69.26473558828962
69.14808622507017
69.03349972241216
68.91915444203426
68.80504861106292
68.69117917756303
68.57754119837875
68.46412694921185
68.3509245477601
68.23791563088156
48.19740178312848
48.19740178312848
48.19740178312848
48.19740178312848
48.19740178312848
48.19740178312848
48.19740178312848
48.19740178312848
48.19740178312848
48.19740178312848
46.43114816540378
46.4237468029951
46.41661710863612
46.40975721017499
46.4031656337104
46.39684122872194
46.390783122450124
46.38499069226706
46.379463548940656
70.06927842433394
69.93028735146753
69.79020223724557
69.64900415778774
69.50666204456247
69.36313301504555
69.2183628488515
69.07228697776591
68.92483272808374
68.77592424094017
68.62549287161356
68.47349831491582
68.31996750973467
68.16505420236832
68.0107055686534
67.85636988661453
67.70209117285457
67.54791846009776
67.39390804763742
67.24012678023549
67.0866571323058
66.93360580449234
48.19740178312848
48.19740178312848
48.19740178312848
48.19740178312848
48.19740178312848
48.19740178312848
48.19740178312848
48.19740178312848
48.19740178312848
48.19740178312848
45.7108460344972
45.70568711864283
45.70050676892731
45.69530950695174
45.69009872610299
45.6848769658586
45.67964607812773
45.67440732744996
45.669161451421
70.06508990679487
69.92609493848852
69.78599933014931
69.64478288527472
69.50241289839498
69.3588442667048
69.21401912386891
69.06786622172119
68.92030009921766
68.77122000346885
68.62050837471605
68.46803245242359
68.31367392319746
68.15740688573004
68.00134675308084
67.84520321301659
67.6889770975903
67.532657687037
67.37621498752449
67.21958562806599
67.06263944536745
66.90509913113763
66.74584871672263
46.4654667716368
46.41350562237252
46.408633476134895
46.410532829869034
46.40988583827018
46.410060216822856
46.41025245687496
46.40723932953924
45.71068225870733
45.7053259936652
45.70003498642977
45.6947601933424
45.68949441159391
45.68423386863898
45.67897689672285
45.67372274808388
45.66847110029533
45.66322182681308
70.06104362493166
69.92204536834757
69.78194097356341
69.6407089029021
69.49831480892759
69.35471140325765
69.20983722503998
69.06361441517143
68.91594481365759
68.7667028904104
68.61572236898773
68.46277647248371
68.3075932569877
68.14996234244508
67.99218229372963
67.83422832458389
67.6760633188555
67.51762344894732
67.35880371380166
67.19943490550432
67.03923880387072
66.87770619015562
66.71403954978466
46.48891717007712
46.39953427748612
46.40442004004077
46.403746474993746
46.403798932344614
46.40370737697156
46.40428165125147
46.39996110655227
45.70537975871193
45.69989114411044
45.69447968948724
45.689117358957766
45.683786054765974
45.678477101928756
45.67318550883383
45.66790833553083
45.66264386572535
45.65739119649919
70.05713996365482
69.91813908556416
69.77802773294341
69.63678290849289
69.49436864358472
69.3507355697948
69.20581880672006
69.05953418838021
68.91177140871241
68.76238116737412
68.61115053783377
68.45775953803387
68.30177056991742
68.14278117306745
67.9832996860373
67.82356862842711
67.66352427786084
67.50306256101037
67.3420226517784
67.18016656136923
67.01714619079485
66.8524711356197
66.68550532430291
46.508400894508505
46.38675527504971
46.4000324639805
46.39715197036474
46.3978028464859
46.39748394904643
46.39838645807842
46.39293839537483
45.70007561687045
45.694492197806
45.688993059843234
45.68355692751599
45.67816783142387
45.672814963916316
45.66749143446768
45.662192811242285
45.6569163427845
45.6516605215928
70.05337919579672