# vtk DataFile Version 2.0
Niestacjonarne zagadnienie cieplne - ogrzewanie wody w garnku stalowym
ASCII
DATASET UNSTRUCTURED_GRID
POINTS 1353 float
0.0 0.0 0.0
0.0 3.846153846153846E-4 0.0
0.0 7.692307692307692E-4 0.0
0.0 0.0011538461538461537 0.0
0.0 0.0015384615384615385 0.0
0.0 0.0019230769230769232 0.0
0.0 0.0023076923076923075 0.0
0.0 0.002692307692307692 0.0
0.0 0.003076923076923077 0.0
0.0 0.0034615384615384616 0.0
0.0 0.0038461538461538464 0.0
0.0 0.004230769230769231 0.0
0.0 0.004615384615384615 0.0
0.0 0.005 0.0
0.0 0.005111111111111111 0.0
0.0 0.005222222222222223 0.0
0.0 0.005333333333333333 0.0
0.0 0.0054444444444444445 0.0
0.0 0.005555555555555556 0.0
0.0 0.005666666666666667 0.0
0.0 0.0057777777777777775 0.0
0.0 0.005888888888888889 0.0
0.0 0.006 0.0
0.0 0.01711111111111111 0.0
0.0 0.028222222222222225 0.0
0.0 0.03933333333333333 0.0
0.0 0.050444444444444445 0.0
0.0 0.06155555555555556 0.0
0.0 0.07266666666666667 0.0
0.0 0.08377777777777778 0.0
0.0 0.0948888888888889 0.0
0.0 0.10600000000000001 0.0
0.0 0.10611111111111113 0.0
0.0 0.10622222222222223 0.0
0.0 0.10633333333333335 0.0
0.0 0.10644444444444445 0.0
0.0 0.10655555555555557 0.0
0.0 0.10666666666666667 0.0
0.0 0.10677777777777779 0.0
0.0 0.1068888888888889 0.0
0.0 0.10700000000000001 0.0
1.1111111111111112E-4 0.0 0.0
1.1111111111111112E-4 3.846153846153846E-4 0.0
1.1111111111111112E-4 7.692307692307692E-4 0.0
1.1111111111111112E-4 0.0011538461538461537 0.0
1.1111111111111112E-4 0.0015384615384615385 0.0
1.1111111111111112E-4 0.0019230769230769232 0.0
1.1111111111111112E-4 0.0023076923076923075 0.0
1.1111111111111112E-4 0.002692307692307692 0.0
1.1111111111111112E-4 0.003076923076923077 0.0
1.1111111111111112E-4 0.0034615384615384616 0.0
1.1111111111111112E-4 0.0038461538461538464 0.0
1.1111111111111112E-4 0.004230769230769231 0.0
1.1111111111111112E-4 0.004615384615384615 0.0
1.1111111111111112E-4 0.005 0.0
1.1111111111111112E-4 0.005111111111111111 0.0
1.1111111111111112E-4 0.005222222222222223 0.0
1.1111111111111112E-4 0.005333333333333333 0.0
1.1111111111111112E-4 0.0054444444444444445 0.0
1.1111111111111112E-4 0.005555555555555556 0.0
1.1111111111111112E-4 0.005666666666666667 0.0
1.1111111111111112E-4 0.0057777777777777775 0.0
1.1111111111111112E-4 0.005888888888888889 0.0
1.1111111111111112E-4 0.006 0.0
1.1111111111111112E-4 0.01711111111111111 0.0
1.1111111111111112E-4 0.028222222222222225 0.0
1.1111111111111112E-4 0.03933333333333333 0.0
1.1111111111111112E-4 0.050444444444444445 0.0
1.1111111111111112E-4 0.06155555555555556 0.0
1.1111111111111112E-4 0.07266666666666667 0.0
1.1111111111111112E-4 0.08377777777777778 0.0
1.1111111111111112E-4 0.0948888888888889 0.0
1.1111111111111112E-4 0.10600000000000001 0.0
1.1111111111111112E-4 0.10611111111111113 0.0
1.1111111111111112E-4 0.10622222222222223 0.0
1.1111111111111112E-4 0.10633333333333335 0.0
1.1111111111111112E-4 0.10644444444444445 0.0
1.1111111111111112E-4 0.10655555555555557 0.0
1.1111111111111112E-4 0.10666666666666667 0.0
1.1111111111111112E-4 0.10677777777777779 0.0
1.1111111111111112E-4 0.1068888888888889 0.0
1.1111111111111112E-4 0.10700000000000001 0.0
2.2222222222222223E-4 0.0 0.0
2.2222222222222223E-4 3.846153846153846E-4 0.0
2.2222222222222223E-4 7.692307692307692E-4 0.0
2.2222222222222223E-4 0.0011538461538461537 0.0
2.2222222222222223E-4 0.0015384615384615385 0.0
2.2222222222222223E-4 0.0019230769230769232 0.0
2.2222222222222223E-4 0.0023076923076923075 0.0
2.2222222222222223E-4 0.002692307692307692 0.0
2.2222222222222223E-4 0.003076923076923077 0.0
2.2222222222222223E-4 0.0034615384615384616 0.0
2.2222222222222223E-4 0.0038461538461538464 0.0
2.2222222222222223E-4 0.004230769230769231 0.0
2.2222222222222223E-4 0.004615384615384615 0.0
2.2222222222222223E-4 0.005 0.0
2.2222222222222223E-4 0.005111111111111111 0.0
2.2222222222222223E-4 0.005222222222222223 0.0
2.2222222222222223E-4 0.005333333333333333 0.0
2.2222222222222223E-4 0.0054444444444444445 0.0
2.2222222222222223E-4 0.005555555555555556 0.0
2.2222222222222223E-4 0.005666666666666667 0.0
2.2222222222222223E-4 0.0057777777777777775 0.0
2.2222222222222223E-4 0.005888888888888889 0.0
2.2222222222222223E-4 0.006 0.0
2.2222222222222223E-4 0.01711111111111111 0.0
2.2222222222222223E-4 0.028222222222222225 0.0
2.2222222222222223E-4 0.03933333333333333 0.0
2.2222222222222223E-4 0.050444444444444445 0.0
2.2222222222222223E-4 0.06155555555555556 0.0
2.2222222222222223E-4 0.07266666666666667 0.0
2.2222222222222223E-4 0.08377777777777778 0.0
2.2222222222222223E-4 0.0948888888888889 0.0
2.2222222222222223E-4 0.10600000000000001 0.0
2.2222222222222223E-4 0.10611111111111113 0.0
2.2222222222222223E-4 0.10622222222222223 0.0
2.2222222222222223E-4 0.10633333333333335 0.0
2.2222222222222223E-4 0.10644444444444445 0.0
2.2222222222222223E-4 0.10655555555555557 0.0
2.2222222222222223E-4 0.10666666666666667 0.0
2.2222222222222223E-4 0.10677777777777779 0.0
2.2222222222222223E-4 0.1068888888888889 0.0
2.2222222222222223E-4 0.10700000000000001 0.0
3.333333333333334E-4 0.0 0.0
3.333333333333334E-4 3.846153846153846E-4 0.0
3.333333333333334E-4 7.692307692307692E-4 0.0
3.333333333333334E-4 0.0011538461538461537 0.0
3.333333333333334E-4 0.0015384615384615385 0.0
3.333333333333334E-4 0.0019230769230769232 0.0
3.333333333333334E-4 0.0023076923076923075 0.0
3.333333333333334E-4 0.002692307692307692 0.0
3.333333333333334E-4 0.003076923076923077 0.0
3.333333333333334E-4 0.0034615384615384616 0.0
3.333333333333334E-4 0.0038461538461538464 0.0
3.333333333333334E-4 0.004230769230769231 0.0
3.333333333333334E-4 0.004615384615384615 0.0
3.333333333333334E-4 0.005 0.0
3.333333333333334E-4 0.005111111111111111 0.0
3.333333333333334E-4 0.005222222222222223 0.0
3.333333333333334E-4 0.005333333333333333 0.0
3.333333333333334E-4 0.0054444444444444445 0.0
3.333333333333334E-4 0.005555555555555556 0.0
3.333333333333334E-4 0.005666666666666667 0.0
3.333333333333334E-4 0.0057777777777777775 0.0
3.333333333333334E-4 0.005888888888888889 0.0
3.333333333333334E-4 0.006 0.0
3.333333333333334E-4 0.01711111111111111 0.0
3.333333333333334E-4 0.028222222222222225 0.0
3.333333333333334E-4 0.03933333333333333 0.0
3.333333333333334E-4 0.050444444444444445 0.0
3.333333333333334E-4 0.06155555555555556 0.0
3.333333333333334E-4 0.07266666666666667 0.0
3.333333333333334E-4 0.08377777777777778 0.0
3.333333333333334E-4 0.0948888888888889 0.0
3.333333333333334E-4 0.10600000000000001 0.0
3.333333333333334E-4 0.10611111111111113 0.0
3.333333333333334E-4 0.10622222222222223 0.0
3.333333333333334E-4 0.10633333333333335 0.0
3.333333333333334E-4 0.10644444444444445 0.0
3.333333333333334E-4 0.10655555555555557 0.0
3.333333333333334E-4 0.10666666666666667 0.0
3.333333333333334E-4 0.10677777777777779 0.0
3.333333333333334E-4 0.1068888888888889 0.0
3.333333333333334E-4 0.10700000000000001 0.0
4.4444444444444447E-4 0.0 0.0
4.4444444444444447E-4 3.846153846153846E-4 0.0
4.4444444444444447E-4 7.692307692307692E-4 0.0
4.4444444444444447E-4 0.0011538461538461537 0.0
4.4444444444444447E-4 0.0015384615384615385 0.0
4.4444444444444447E-4 0.0019230769230769232 0.0
4.4444444444444447E-4 0.0023076923076923075 0.0
4.4444444444444447E-4 0.002692307692307692 0.0
4.4444444444444447E-4 0.003076923076923077 0.0
4.4444444444444447E-4 0.0034615384615384616 0.0
4.4444444444444447E-4 0.0038461538461538464 0.0
4.4444444444444447E-4 0.004230769230769231 0.0
4.4444444444444447E-4 0.004615384615384615 0.0
4.4444444444444447E-4 0.005 0.0
4.4444444444444447E-4 0.005111111111111111 0.0
4.4444444444444447E-4 0.005222222222222223 0.0
4.4444444444444447E-4 0.005333333333333333 0.0
4.4444444444444447E-4 0.0054444444444444445 0.0
4.4444444444444447E-4 0.005555555555555556 0.0
4.4444444444444447E-4 0.005666666666666667 0.0
4.4444444444444447E-4 0.0057777777777777775 0.0
4.4444444444444447E-4 0.005888888888888889 0.0
4.4444444444444447E-4 0.006 0.0
4.4444444444444447E-4 0.01711111111111111 0.0
4.4444444444444447E-4 0.028222222222222225 0.0
4.4444444444444447E-4 0.03933333333333333 0.0
4.4444444444444447E-4 0.050444444444444445 0.0
4.4444444444444447E-4 0.06155555555555556 0.0
4.4444444444444447E-4 0.07266666666666667 0.0
4.4444444444444447E-4 0.08377777777777778 0.0
4.4444444444444447E-4 0.0948888888888889 0.0
4.4444444444444447E-4 0.10600000000000001 0.0
4.4444444444444447E-4 0.10611111111111113 0.0
4.4444444444444447E-4 0.10622222222222223 0.0
4.4444444444444447E-4 0.10633333333333335 0.0
4.4444444444444447E-4 0.10644444444444445 0.0
4.4444444444444447E-4 0.10655555555555557 0.0
4.4444444444444447E-4 0.10666666666666667 0.0
4.4444444444444447E-4 0.10677777777777779 0.0
4.4444444444444447E-4 0.1068888888888889 0.0
4.4444444444444447E-4 0.10700000000000001 0.0
5.555555555555556E-4 0.0 0.0
5.555555555555556E-4 3.846153846153846E-4 0.0
5.555555555555556E-4 7.692307692307692E-4 0.0
5.555555555555556E-4 0.0011538461538461537 0.0
5.555555555555556E-4 0.0015384615384615385 0.0
5.555555555555556E-4 0.0019230769230769232 0.0
5.555555555555556E-4 0.0023076923076923075 0.0
5.555555555555556E-4 0.002692307692307692 0.0
5.555555555555556E-4 0.003076923076923077 0.0
5.555555555555556E-4 0.0034615384615384616 0.0
5.555555555555556E-4 0.0038461538461538464 0.0
5.555555555555556E-4 0.004230769230769231 0.0
5.555555555555556E-4 0.004615384615384615 0.0
5.555555555555556E-4 0.005 0.0
5.555555555555556E-4 0.005111111111111111 0.0
5.555555555555556E-4 0.005222222222222223 0.0
5.555555555555556E-4 0.005333333333333333 0.0
5.555555555555556E-4 0.0054444444444444445 0.0
5.555555555555556E-4 0.005555555555555556 0.0
5.555555555555556E-4 0.005666666666666667 0.0
5.555555555555556E-4 0.0057777777777777775 0.0
5.555555555555556E-4 0.005888888888888889 0.0
5.555555555555556E-4 0.006 0.0
5.555555555555556E-4 0.01711111111111111 0.0
5.555555555555556E-4 0.028222222222222225 0.0
5.555555555555556E-4 0.03933333333333333 0.0
5.555555555555556E-4 0.050444444444444445 0.0
5.555555555555556E-4 0.06155555555555556 0.0
[...]
POINT_DATA 1353
SCALARS Temperatura float 1
LOOKUP_TABLE default
113.71073726236662
113.58051569983768
113.4487251795985
113.31532540522362
113.18026592323432
113.04347705364252
112.90486266038047
112.76428709392478
112.62155216577159
112.47634492416721
112.32816651005655
112.17602544946277
112.01851831297213
111.84834899167005
111.66700548652116
111.49515843044783
111.32571898482401
111.15735948517212
110.98918330309408
110.82052892109228
110.65082833959106
110.47956022970718
110.30623036058627
90.70614937114175
90.50532347093389
90.53972824698417
90.53123092967427
90.533535900423
90.5320779128404
90.53617189996442
90.51467359313946
88.83917405804192
88.82441083139194
88.80983126328445
88.79540117463429
88.78108842190584
88.76686427001658
88.7527043885217
88.7385894841537
88.72450564377365
88.71044448597225
113.71639790034443
113.58617079317311
113.45437385084605
113.32096822882617
113.1859035593516
113.04911048595642
112.91049328953318
112.76991750680483
112.62718561035936
112.48199312327641
112.33382687591312
112.18180824168165
112.02412990453576
111.85607753687007
111.6837376760494
111.51281848728912
111.34397462524058
111.17597907981332
111.00808492043345
110.83967359418418
110.67019640770822
110.49913967854596
110.32601126008196
90.71875654812568
90.52027249826757
90.5540690669932
90.54573113571081
90.54799131165733
90.5465573091374
90.55059748716775
90.52929839202126
88.85318405783755
88.83843539019342
88.82387021157791
88.80945346920718
88.7951523142726
88.78093751165983
88.76678442436398
88.75267360198609
88.73859106880991
88.72452842718309
113.72222486473872
113.59199534108296
113.46019501354259
113.32678766504036
113.19172350793662
113.054934034866
112.91632499781292
112.77576458709325
112.63306093082538
112.48791917233567
112.33984980687421
112.1880240099184
112.03067595446592
111.86507479267797
111.69681314235432
111.52885870191157
111.36153499597361
111.19462297231561
111.0276074832659
110.85997865610653
110.69123485637645
110.52088112505825
110.34842899471369
90.72765526192445
90.53628468609787
90.5682403635666
90.5603848282844
90.56250941042798
90.5611480990343
90.5650249719203
90.54433277881729
88.86705820384007
88.85236024802926
88.83784510338134
88.823475016735
88.80921500088903
88.79503435119918
88.78090757334866
88.7668148144607
88.75274196802913
88.73868062351374
113.72821917285776
113.5979892221861
113.4661885403724
113.33278353190948
113.19772551817013
113.06094735539972
112.92235716232538
112.78182756290245
112.63917554653499
112.4941225926093
112.34621825968463
112.19468919464978
112.03805183333797
111.87471426795828
111.70942270453027
111.5440551668406
111.37876700271235
111.2134581116169
111.04783173742078
110.88148497329861
110.7139694588303
110.5448091455229
110.37351339404519
90.73283380832642
90.5533647414492
90.58224049221134
90.5751925879888
90.57708999442781
90.57585049055614
90.57945397060197
90.55977772216805
88.88079417162722
88.86618620809388
88.85175954375396
88.83747159414335
88.82328370032867
88.8091628024606
88.79508218448402
88.78102154769881
88.76696674770582
88.75290946267914
113.7343813040994
113.60415236313631
113.4723541907777
113.33895552158359
113.20390917494161
113.06714984900461
112.92858884695261
112.78810482674379
112.64552646739341
112.50059840685223
112.35291761617682
112.20179963587725
112.04609557009904
111.88485546041437
111.72211097041628
111.55915335936642
111.39603467930735
111.23267225448693
111.0688479883083
110.90423568389349
110.73842815121114
110.57095731498472
110.401314112921
90.73427309409405
90.5715203936499
90.59606672562124
90.5901553649159
90.59173271612734
90.59066481829223
90.59388383381362
90.57563481534734
88.89438797981244
88.87991503824006
88.86562033167279
88.85145371433333
88.83737119599296
88.82333673034546
88.80932243614268
88.79530792277019
88.78127938655896
88.76722885698757
113.74071140951858
113.61048462342467
113.47869163075909
113.34530319928666
113.21027390117322
113.07354069156712
112.93501877212591
112.79459416871825
112.6521098277937
112.50733883432935
112.3599336899653
112.20932664087974
112.05468152585581
111.89543352891187
111.73506275976341
111.57444477012932
111.4135830766566
111.25239795017093
111.09071175092495
110.92824571125195
110.76461997344146
110.5993572303246
110.43190134492235
90.7319464286029
90.59076245686025
90.60971523432829
90.60527448503186
90.6064370796081
90.60559154849756
90.60831363014105
90.59190633415737
88.9078337794269
88.89355032658655
88.87943896939655
88.86543821284037
88.8514970704051
88.8375765969336
88.82364865980877
88.80969379822538
88.79569932467668
88.78165808412304
113.74720941078135
113.6169857551065
113.48520043107415
113.35182600711342
113.2168189653819
113.08011885126662
112.94164534042456
112.8012928875713
112.65892080336786
112.51433451850963
112.36724961735084
112.21723049983845
112.06371378809152
111.90639624335682
111.74832775802975
111.59003427010809
111.4315055748448
111.2726760478921
111.11340652864585
110.95346615026936
110.79250377982902
110.63002009234971
110.46536741055692
90.7258190740978
90.61110495996414
90.623181048242
90.62055166222623
90.62120243502002
90.6206312875394
90.62274211933276
90.6085953329912
88.92112350335104
88.90709935264168
88.89323471076912
88.87945107104524
88.86568959263376
88.8519103532252
88.83808759145671
88.82420465407506
88.8102511648281
88.79622143376174
113.75387505094388
113.62365539135922
113.49188006233791
113.35852326847677
113.22354349159988
113.08688310761406
112.94846668189658
112.80819786006883
112.6659537913028
112.5215749331465
112.37484561530401
112.22546802513706
112.07311515623584
111.91768924858877
111.76189109704612
111.60592445648544
111.44978898641287
111.2934493682137
111.13681948406271
110.97974011346476
110.82193621875052
110.66289911895545
110.50183004492682
90.71584733308028
90.6325654033218
90.63645798306064
90.63598902046266
90.63602796900771
90.63578479586418
90.637167707876
90.62570580484936
88.93424628001918
88.92057763094212
88.90704072078537
88.89353245344873
88.8799878411108
88.8663740964377
88.85267228242743
88.83887114654523
88.82496407077448
88.8109475621648
113.76070792336824
113.63049304609166
113.49872989183922
113.36539419266363
113.23044647055755
113.0938320744127
112.95548070257597
112.81530562545588
112.6732026297737
112.52904865096357
112.38269981419026
112.23399587528507
112.0828194522547
111.92925366598425
111.77570098657769
111.62205648458894
111.46834484317351
111.31457520668742
111.16073264688615
111.00676419606329
110.8525463021357
110.69780440976324
110.54143912065784
90.70197670670663
90.65516526758036
90.64953849785839
90.65158913533968
90.65091268765215
90.65105301195358
90.65158837260198
90.64324295815176
88.9471874150059
88.93401780904931
88.92092240300828
88.9077414352586
88.89444290552031
88.88101182613124
88.86744133555234
88.85372816368164
88.83987076772061
88.82586848135247
113.76770749032471
113.63749811771983
113.50574918262224
113.37243787956767
113.23752677184198
113.10096422520219
112.96268513521076
112.82261248512029
112.68066081128234
112.53674367440964
112.39078926686902
112.24277175160302
112.09276690853191
111.94102728566929
111.78968471369635
111.63833530490753
111.48703586727832
111.33584746429113
111.18483740147455
111.03408236423428
110.8836734763626
110.73372497420934
93.79604064421146
93.79604064421146
93.79604064421146
93.79604064421146
93.79604064421146
93.79604064421146
93.79604064421146
93.79604064421146
93.79604064421146
93.79604064421146
88.94758038013339
88.9349832415211
88.92215670118817
88.90911631780288
88.89587362842344
88.8824372099368
88.86881329068821
88.85500611650711
88.84101817074348
114.81993016812133
114.69149880569786
114.5646645933781
114.43944687194708
114.31587774361316
114.1940022290242
114.07387845471531
113.9555777271203
113.83918420212268
113.7247935788347
113.61250968705428
113.50243687864673
113.3946658136493
113.28925373695807
113.185931618555
113.08285202080343
112.98001192554658
112.8774072468964
112.77503228743107
112.67287888402116
112.57093503614192
112.46918256089592
93.79604064421146
93.79604064421146
93.79604064421146
93.79604064421146
93.79604064421146
93.79604064421146
93.79604064421146
93.79604064421146
93.79604064421146
93.79604064421146
90.70016732210169
90.68233128046896
90.66496130638907
90.64805172224605
90.63159815563442
90.61559725065088
90.60004650076175
90.58494414833385
90.5702891240212
115.50955087401857
115.38084643149986
115.25289987609196
115.12570391140754
114.99924615788348
114.87350897280818
114.74846920508722
114.62409792134572
114.50036017947394
114.37721500201111
114.25461585500672
114.13251220272299
114.0108528090334
113.88959053861163
113.76945883072737
113.64940107922867
113.52941475293578
113.40949756606211
113.28964762335198
113.16986364885528
113.05014535410984
112.93049406828904
93.79604064421146
93.79604064421146
93.79604064421146
93.79604064421146
93.79604064421146
93.79604064421146
93.79604064421146
93.79604064421146
93.79604064421146
93.79604064421146
90.72250112224438
90.7081122560907
90.69371191180859
90.67930227949408
90.66488508983548
90.65046169311424
90.63603310525882
90.6216000357195
90.60716290437841
115.87447827006177
115.74580524734355
115.61780570494295
115.49048182254079
115.36383720168232
115.23787696034664
115.11260786486818
114.9880384907117
114.86417939324296
114.7410432491356
114.61864488735034
114.49700105589179
114.37612973986708
114.2560490867082
114.1373244741642
114.01871565977247
113.90022399350458
113.78185077345618
113.66359720803771
113.54546435564245
113.42745302677606
113.30956361569223
93.79604064421146
93.79604064421146
93.79604064421146
93.79604064421146
93.79604064421146
93.79604064421146
93.79604064421146
93.79604064421146
93.79604064421146
93.79604064421146
90.72234791683904
90.70708591530683
90.69193549802844
90.67689588050648
90.66196642954418
90.64714664146669
90.63243612930182
90.6178346149481
90.60334192438835
116.0799088518604
115.95123379690939
115.82314259831381
115.69563471667217
115.56870914772651
115.44236438375242
115.31659835904134
115.19140838115291
115.06679105224897
114.94274219024268
114.81925677074956
114.69632893070053
114.57395208360545
114.45211913344401
114.33151300113599
114.21099806116753
114.09057370101846
113.97023931661685
113.84999432195396
113.72983816476048
113.60977035228818
113.4897904960607
93.79604064421146
93.79604064421146
93.79604064421146
93.79604064421146
93.79604064421146
93.79604064421146
93.79604064421146
93.79604064421146
93.79604064421146
93.79604064421146
90.72234938404443
90.70731548408216
90.6923604634878
90.67748455673556
90.66268795019478
90.64797078817533
90.63333317652794
90.61877518486848
90.60429684794903
116.1897898779542
116.06111339874894
115.93297289081863
115.80536856692709
115.67830071714687
115.5517697228673
115.42577607676836
115.3003204085453
115.1754035155255
115.05102639590805
114.92719027934031
114.80389664412756
114.68114720770767
114.55894389363985
114.43797503032565
114.31709917154556
114.1963165069918
114.07562722531547
113.95503151174417
113.83452954406226
113.71412148586143
113.59380747466564
93.79604064421146
93.79604064421146
93.79604064421146
93.79604064421146
93.79604064421146
93.79604064421146
93.79604064421146
93.79604064421146
93.79604064421146
93.79604064421146
90.72237020958706
90.70727652505164
90.69227043936876
90.67735185538726
90.66252069085824
90.64777687673859
90.63312035616705
90.61855108382359
90.60406902553085
116.24355163303466
116.11487548638846
115.98671376308172
115.85906650123255
115.73193369048937
115.60531526702746
115.47921110634731
115.35362101383913
115.22854471323146
115.1039818334194
114.97993189501324
114.85639429950287
114.73336832474232
114.6108531258021
114.48955454629899
114.36834551720744
114.24722595937361
114.12619579313545
114.00525493892094
113.8844033183153
113.76364085591013
113.6429674826218
93.79604064421146
93.79604064421146
93.79604064421146
93.79604064421146
93.79604064421146
93.79604064421146
93.79604064421146
93.79604064421146
93.79604064421146
93.79604064421146
90.72235971520628
90.70728199276348
90.69228949991899
90.67738224610899
90.66256023581641
90.64782346908098
90.63317194181208
90.61860564598727
90.60412456977714
116.25960265141086
116.13092621786973
116.00275703689975
115.87509520195256
115.74794080097142
115.6212939192773
115.49515464375308
115.36952306838724
115.24439930117616
115.11978347220844
114.99567574234138
114.87207631110475
114.74898542204902
114.62640336605274
114.50503787993895
114.38376201094799
114.262575797995
114.14147928022862
114.02047249677004
113.89955548621774
113.7787282857603
113.65799092955338
93.79604064421146
93.79604064421146
93.79604064421146
93.79604064421146
93.79604064421146
93.79604064421146
93.79604064421146
93.79604064421146
93.79604064421146
93.79604064421146
90.72236448504158
90.70728155063453
90.69228463428713
90.6773737041203
90.66254873089048
90.6478096877237
90.63315654995031
90.61858929499934
90.60410790233125
116.24355163303436
116.11487548638812
115.98671376308134
115.85906650123206
115.7319336904887
115.60531526702651
115.47921110634614
115.35362101383784
115.22854471323004
115.10398183341772
114.97993189501123
114.85639429950051
114.73336832473957
114.61085312579897
114.48955454629548
114.36834551720355
114.24722595936943
114.12619579313098
114.00525493891621
113.88440331831038
113.76364085590512
113.64296748261673
93.79604064421146
93.79604064421146
93.79604064421146
93.79604064421146
93.79604064421146
93.79604064421146
93.79604064421146
93.79604064421146
93.79604064421146
93.79604064421146
90.72235971519756
90.70728199275474
90.69228949991023
90.67738224610021
90.66256023580759
90.64782346907208
90.63317194180314
90.61860564597833
90.60412456976822
116.18978987795944
116.06111339875417
115.93297289082389
115.80536856693243
115.6783007171523
115.55176972287288
115.42577607677396
115.30032040855087
115.17540351553102
115.05102639591361
114.92719027934598
114.80389664413339
114.68114720771364
114.55894389364605
114.43797503033207
114.31709917155217
114.19631650699858
114.0756272253225
113.95503151175132
113.8345295440695
113.71412148586863
113.59380747467281
93.79604064421146
93.79604064421146
93.79604064421146
93.79604064421146
93.79604064421146
93.79604064421146
93.79604064421146
93.79604064421146
93.79604064421146
93.79604064421146
90.7223702095596
90.70727652502404
90.69227043934102
90.67735185535936
90.66252069083019
90.64777687671044
90.63312035613882
90.61855108379531
90.60406902550257
116.07990885186874
115.95123379691776
115.82314259832229
115.69563471668071
115.56870914773502
115.44236438376076
115.31659835904964
115.19140838116118
115.06679105225714
114.94274219025063
114.81925677075716
114.69632893070772
114.57395208361223
114.45211913345035
114.33151300114197
114.21099806117324
114.09057370102397
113.9702393166222
113.84999432195919
113.72983816476561
113.60977035229327
113.48979049606574
93.79604064421146
93.79604064421146
93.79604064421146
93.79604064421146
93.79604064421146
93.79604064421146
93.79604064421146
93.79604064421146
93.79604064421146
93.79604064421146
90.72234938404236
90.70731548408008
90.69236046348574
90.67748455673353
90.6626879501928
90.64797078817344
90.63333317652608
90.6187751848666
90.60429684794717
115.87447827008123
115.745805247363
115.61780570496234
115.4904818225601
115.36383720170156
115.23787696036585
115.11260786488732
114.98803849073079
114.86417939326208
114.74104324915477
114.6186448873696
114.49700105591113
114.37612973988645
114.2560490867276
114.13732447418357
114.01871565979184
113.90022399352385
113.78185077347524
113.66359720805667
113.54546435566128
113.42745302679467
113.30956361571064
93.79604064421146
93.79604064421146
93.79604064421146
93.79604064421146
93.79604064421146
93.79604064421146
93.79604064421146
93.79604064421146
93.79604064421146
93.79604064421146
90.72234791683478
90.70708591530254
90.69193549802412
90.67689588050216
90.66196642953985
90.64714664146233
90.63243612929745
90.61783461494375
90.60334192438401
115.50955087404292
115.38084643152425
115.25289987611646
115.12570391143217
114.99924615790823
114.87350897283306
114.74846920511226
114.62409792137089
114.50036017949921
114.37721500203646
114.25461585503214
114.13251220274854
114.01085280905913
113.88959053863759
113.7694588307536
113.64940107925517
113.52941475296252
113.40949756608914
113.28964762337917
113.16986364888261
113.05014535413727
112.93049406831649
93.79604064421146
93.79604064421146
93.79604064421146
93.79604064421146
93.79604064421146
93.79604064421146
93.79604064421146
93.79604064421146
93.79604064421146
93.79604064421146
90.72250112222638
90.70811225607257
90.69371191179037
90.67930227947578
90.66488508981713
90.65046169309588
90.63603310524049
90.62160003570123
90.60716290436017
114.81993016812744
114.69149880570399
114.56466459338424
114.43944687195322
114.3158777436193
114.19400222903026
114.07387845472128
113.95557772712621
113.83918420212855
113.72479357884059
113.6125096870602
113.50243687865267
113.39466581365525
113.289253736964
113.18593161856086
113.08285202080923
112.98001192555232
112.87740724690197
112.77503228743662
112.67287888402663
112.57093503614722
112.46918256090109
93.79604064421146
93.79604064421146
93.79604064421146
93.79604064421146
93.79604064421146
93.79604064421146
93.79604064421146
93.79604064421146
93.79604064421146
93.79604064421146
90.70016732210325
90.68233128047052
90.66496130639064
90.64805172224762
90.63159815563596
90.61559725065231
90.6000465007631
90.58494414833514
90.57028912402247
113.76770749032521
113.63749811772036
113.50574918262272
113.3724378795681
113.23752677184235
113.10096422520263
112.9626851352113
112.82261248512093
112.68066081128313
112.53674367441052
112.39078926686996
112.24277175160407
112.09276690853306
111.94102728567049
111.78968471369764
111.63833530490894
111.48703586727983
111.33584746429284
111.18483740147632
111.03408236423614
110.88367347636455
110.73372497421134
93.79604064421146
93.79604064421146
93.79604064421146
93.79604064421146
93.79604064421146
93.79604064421146
93.79604064421146
93.79604064421146
93.79604064421146
93.79604064421146
88.94758038011973
88.93498324150754
88.92215670117471
88.9091163177895
88.89587362841011
88.88243720992355
88.86881329067508
88.85500611649401
88.84101817073037
113.76070792336881
113.6304930460922
113.4987298918397
113.36539419266398
113.23044647055801
113.09383207441313
112.95548070257664
112.81530562545667
112.67320262977466
112.52904865096458
112.3826998141912
112.23399587528633
112.08281945225603
111.92925366598564
111.77570098657914
111.62205648459044
111.46834484317509
111.31457520668913
111.16073264688796
111.00676419606513
110.85254630213758
110.69780440976523
110.54143912065989
90.70197670671742
90.6551652676189
90.64953849787281
90.65158913535332
90.65091268770563
90.6510530119658
90.65158837260014
90.64324295815422
88.9471874149922
88.93401780903561
88.92092240299459
88.90774143524497
88.89444290550678
88.8810118261178
88.86744133553894
88.85372816366828
88.83987076770724
88.82586848133919
113.75387505094453
113.62365539135975
113.49188006233844
113.35852326847707
113.22354349160042
113.08688310761451
112.94846668189726
112.80819786006977
112.66595379130382
112.52157493314759
112.37484561530498
112.22546802513845
112.07311515623735
111.9176892485903
111.76189109704764
111.605924456487
111.44978898641446
111.29344936821539
111.13681948406447
110.97974011346656
110.82193621875234
110.66289911895736
110.50183004492878
90.71584733309122
90.63256540336047
90.63645798307503
90.63598902047637
90.63602796906137
90.63578479587648
90.63716770787414
90.62570580485169
88.93424628000537
88.92057763092834
88.90704072077158
88.89353245343503
88.87998784109722
88.86637409642411
88.85267228241389
88.8388711465317
88.82496407076094
88.81094756215126
113.74720941078199
113.61698575510707
113.48520043107465
113.35182600711373
113.21681896538232
113.080118851267
112.9416453404252
112.8012928875723
112.65892080336899
112.51433451851082
112.36724961735189
112.21723049983984
112.06371378809311
111.90639624335847
111.74832775803141
111.59003427010965