# vtk DataFile Version 2.0
Niestacjonarne zagadnienie cieplne - ogrzewanie wody w garnku stalowym
ASCII
DATASET UNSTRUCTURED_GRID
POINTS 1353 float
0.0 0.0 0.0
0.0 3.846153846153846E-4 0.0
0.0 7.692307692307692E-4 0.0
0.0 0.0011538461538461537 0.0
0.0 0.0015384615384615385 0.0
0.0 0.0019230769230769232 0.0
0.0 0.0023076923076923075 0.0
0.0 0.002692307692307692 0.0
0.0 0.003076923076923077 0.0
0.0 0.0034615384615384616 0.0
0.0 0.0038461538461538464 0.0
0.0 0.004230769230769231 0.0
0.0 0.004615384615384615 0.0
0.0 0.005 0.0
0.0 0.005111111111111111 0.0
0.0 0.005222222222222223 0.0
0.0 0.005333333333333333 0.0
0.0 0.0054444444444444445 0.0
0.0 0.005555555555555556 0.0
0.0 0.005666666666666667 0.0
0.0 0.0057777777777777775 0.0
0.0 0.005888888888888889 0.0
0.0 0.006 0.0
0.0 0.01711111111111111 0.0
0.0 0.028222222222222225 0.0
0.0 0.03933333333333333 0.0
0.0 0.050444444444444445 0.0
0.0 0.06155555555555556 0.0
0.0 0.07266666666666667 0.0
0.0 0.08377777777777778 0.0
0.0 0.0948888888888889 0.0
0.0 0.10600000000000001 0.0
0.0 0.10611111111111113 0.0
0.0 0.10622222222222223 0.0
0.0 0.10633333333333335 0.0
0.0 0.10644444444444445 0.0
0.0 0.10655555555555557 0.0
0.0 0.10666666666666667 0.0
0.0 0.10677777777777779 0.0
0.0 0.1068888888888889 0.0
0.0 0.10700000000000001 0.0
1.1111111111111112E-4 0.0 0.0
1.1111111111111112E-4 3.846153846153846E-4 0.0
1.1111111111111112E-4 7.692307692307692E-4 0.0
1.1111111111111112E-4 0.0011538461538461537 0.0
1.1111111111111112E-4 0.0015384615384615385 0.0
1.1111111111111112E-4 0.0019230769230769232 0.0
1.1111111111111112E-4 0.0023076923076923075 0.0
1.1111111111111112E-4 0.002692307692307692 0.0
1.1111111111111112E-4 0.003076923076923077 0.0
1.1111111111111112E-4 0.0034615384615384616 0.0
1.1111111111111112E-4 0.0038461538461538464 0.0
1.1111111111111112E-4 0.004230769230769231 0.0
1.1111111111111112E-4 0.004615384615384615 0.0
1.1111111111111112E-4 0.005 0.0
1.1111111111111112E-4 0.005111111111111111 0.0
1.1111111111111112E-4 0.005222222222222223 0.0
1.1111111111111112E-4 0.005333333333333333 0.0
1.1111111111111112E-4 0.0054444444444444445 0.0
1.1111111111111112E-4 0.005555555555555556 0.0
1.1111111111111112E-4 0.005666666666666667 0.0
1.1111111111111112E-4 0.0057777777777777775 0.0
1.1111111111111112E-4 0.005888888888888889 0.0
1.1111111111111112E-4 0.006 0.0
1.1111111111111112E-4 0.01711111111111111 0.0
1.1111111111111112E-4 0.028222222222222225 0.0
1.1111111111111112E-4 0.03933333333333333 0.0
1.1111111111111112E-4 0.050444444444444445 0.0
1.1111111111111112E-4 0.06155555555555556 0.0
1.1111111111111112E-4 0.07266666666666667 0.0
1.1111111111111112E-4 0.08377777777777778 0.0
1.1111111111111112E-4 0.0948888888888889 0.0
1.1111111111111112E-4 0.10600000000000001 0.0
1.1111111111111112E-4 0.10611111111111113 0.0
1.1111111111111112E-4 0.10622222222222223 0.0
1.1111111111111112E-4 0.10633333333333335 0.0
1.1111111111111112E-4 0.10644444444444445 0.0
1.1111111111111112E-4 0.10655555555555557 0.0
1.1111111111111112E-4 0.10666666666666667 0.0
1.1111111111111112E-4 0.10677777777777779 0.0
1.1111111111111112E-4 0.1068888888888889 0.0
1.1111111111111112E-4 0.10700000000000001 0.0
2.2222222222222223E-4 0.0 0.0
2.2222222222222223E-4 3.846153846153846E-4 0.0
2.2222222222222223E-4 7.692307692307692E-4 0.0
2.2222222222222223E-4 0.0011538461538461537 0.0
2.2222222222222223E-4 0.0015384615384615385 0.0
2.2222222222222223E-4 0.0019230769230769232 0.0
2.2222222222222223E-4 0.0023076923076923075 0.0
2.2222222222222223E-4 0.002692307692307692 0.0
2.2222222222222223E-4 0.003076923076923077 0.0
2.2222222222222223E-4 0.0034615384615384616 0.0
2.2222222222222223E-4 0.0038461538461538464 0.0
2.2222222222222223E-4 0.004230769230769231 0.0
2.2222222222222223E-4 0.004615384615384615 0.0
2.2222222222222223E-4 0.005 0.0
2.2222222222222223E-4 0.005111111111111111 0.0
2.2222222222222223E-4 0.005222222222222223 0.0
2.2222222222222223E-4 0.005333333333333333 0.0
2.2222222222222223E-4 0.0054444444444444445 0.0
2.2222222222222223E-4 0.005555555555555556 0.0
2.2222222222222223E-4 0.005666666666666667 0.0
2.2222222222222223E-4 0.0057777777777777775 0.0
2.2222222222222223E-4 0.005888888888888889 0.0
2.2222222222222223E-4 0.006 0.0
2.2222222222222223E-4 0.01711111111111111 0.0
2.2222222222222223E-4 0.028222222222222225 0.0
2.2222222222222223E-4 0.03933333333333333 0.0
2.2222222222222223E-4 0.050444444444444445 0.0
2.2222222222222223E-4 0.06155555555555556 0.0
2.2222222222222223E-4 0.07266666666666667 0.0
2.2222222222222223E-4 0.08377777777777778 0.0
2.2222222222222223E-4 0.0948888888888889 0.0
2.2222222222222223E-4 0.10600000000000001 0.0
2.2222222222222223E-4 0.10611111111111113 0.0
2.2222222222222223E-4 0.10622222222222223 0.0
2.2222222222222223E-4 0.10633333333333335 0.0
2.2222222222222223E-4 0.10644444444444445 0.0
2.2222222222222223E-4 0.10655555555555557 0.0
2.2222222222222223E-4 0.10666666666666667 0.0
2.2222222222222223E-4 0.10677777777777779 0.0
2.2222222222222223E-4 0.1068888888888889 0.0
2.2222222222222223E-4 0.10700000000000001 0.0
3.333333333333334E-4 0.0 0.0
3.333333333333334E-4 3.846153846153846E-4 0.0
3.333333333333334E-4 7.692307692307692E-4 0.0
3.333333333333334E-4 0.0011538461538461537 0.0
3.333333333333334E-4 0.0015384615384615385 0.0
3.333333333333334E-4 0.0019230769230769232 0.0
3.333333333333334E-4 0.0023076923076923075 0.0
3.333333333333334E-4 0.002692307692307692 0.0
3.333333333333334E-4 0.003076923076923077 0.0
3.333333333333334E-4 0.0034615384615384616 0.0
3.333333333333334E-4 0.0038461538461538464 0.0
3.333333333333334E-4 0.004230769230769231 0.0
3.333333333333334E-4 0.004615384615384615 0.0
3.333333333333334E-4 0.005 0.0
3.333333333333334E-4 0.005111111111111111 0.0
3.333333333333334E-4 0.005222222222222223 0.0
3.333333333333334E-4 0.005333333333333333 0.0
3.333333333333334E-4 0.0054444444444444445 0.0
3.333333333333334E-4 0.005555555555555556 0.0
3.333333333333334E-4 0.005666666666666667 0.0
3.333333333333334E-4 0.0057777777777777775 0.0
3.333333333333334E-4 0.005888888888888889 0.0
3.333333333333334E-4 0.006 0.0
3.333333333333334E-4 0.01711111111111111 0.0
3.333333333333334E-4 0.028222222222222225 0.0
3.333333333333334E-4 0.03933333333333333 0.0
3.333333333333334E-4 0.050444444444444445 0.0
3.333333333333334E-4 0.06155555555555556 0.0
3.333333333333334E-4 0.07266666666666667 0.0
3.333333333333334E-4 0.08377777777777778 0.0
3.333333333333334E-4 0.0948888888888889 0.0
3.333333333333334E-4 0.10600000000000001 0.0
3.333333333333334E-4 0.10611111111111113 0.0
3.333333333333334E-4 0.10622222222222223 0.0
3.333333333333334E-4 0.10633333333333335 0.0
3.333333333333334E-4 0.10644444444444445 0.0
3.333333333333334E-4 0.10655555555555557 0.0
3.333333333333334E-4 0.10666666666666667 0.0
3.333333333333334E-4 0.10677777777777779 0.0
3.333333333333334E-4 0.1068888888888889 0.0
3.333333333333334E-4 0.10700000000000001 0.0
4.4444444444444447E-4 0.0 0.0
4.4444444444444447E-4 3.846153846153846E-4 0.0
4.4444444444444447E-4 7.692307692307692E-4 0.0
4.4444444444444447E-4 0.0011538461538461537 0.0
4.4444444444444447E-4 0.0015384615384615385 0.0
4.4444444444444447E-4 0.0019230769230769232 0.0
4.4444444444444447E-4 0.0023076923076923075 0.0
4.4444444444444447E-4 0.002692307692307692 0.0
4.4444444444444447E-4 0.003076923076923077 0.0
4.4444444444444447E-4 0.0034615384615384616 0.0
4.4444444444444447E-4 0.0038461538461538464 0.0
4.4444444444444447E-4 0.004230769230769231 0.0
4.4444444444444447E-4 0.004615384615384615 0.0
4.4444444444444447E-4 0.005 0.0
4.4444444444444447E-4 0.005111111111111111 0.0
4.4444444444444447E-4 0.005222222222222223 0.0
4.4444444444444447E-4 0.005333333333333333 0.0
4.4444444444444447E-4 0.0054444444444444445 0.0
4.4444444444444447E-4 0.005555555555555556 0.0
4.4444444444444447E-4 0.005666666666666667 0.0
4.4444444444444447E-4 0.0057777777777777775 0.0
4.4444444444444447E-4 0.005888888888888889 0.0
4.4444444444444447E-4 0.006 0.0
4.4444444444444447E-4 0.01711111111111111 0.0
4.4444444444444447E-4 0.028222222222222225 0.0
4.4444444444444447E-4 0.03933333333333333 0.0
4.4444444444444447E-4 0.050444444444444445 0.0
4.4444444444444447E-4 0.06155555555555556 0.0
4.4444444444444447E-4 0.07266666666666667 0.0
4.4444444444444447E-4 0.08377777777777778 0.0
4.4444444444444447E-4 0.0948888888888889 0.0
4.4444444444444447E-4 0.10600000000000001 0.0
4.4444444444444447E-4 0.10611111111111113 0.0
4.4444444444444447E-4 0.10622222222222223 0.0
4.4444444444444447E-4 0.10633333333333335 0.0
4.4444444444444447E-4 0.10644444444444445 0.0
4.4444444444444447E-4 0.10655555555555557 0.0
4.4444444444444447E-4 0.10666666666666667 0.0
4.4444444444444447E-4 0.10677777777777779 0.0
4.4444444444444447E-4 0.1068888888888889 0.0
4.4444444444444447E-4 0.10700000000000001 0.0
5.555555555555556E-4 0.0 0.0
5.555555555555556E-4 3.846153846153846E-4 0.0
5.555555555555556E-4 7.692307692307692E-4 0.0
5.555555555555556E-4 0.0011538461538461537 0.0
5.555555555555556E-4 0.0015384615384615385 0.0
5.555555555555556E-4 0.0019230769230769232 0.0
5.555555555555556E-4 0.0023076923076923075 0.0
5.555555555555556E-4 0.002692307692307692 0.0
5.555555555555556E-4 0.003076923076923077 0.0
5.555555555555556E-4 0.0034615384615384616 0.0
5.555555555555556E-4 0.0038461538461538464 0.0
5.555555555555556E-4 0.004230769230769231 0.0
5.555555555555556E-4 0.004615384615384615 0.0
5.555555555555556E-4 0.005 0.0
5.555555555555556E-4 0.005111111111111111 0.0
5.555555555555556E-4 0.005222222222222223 0.0
5.555555555555556E-4 0.005333333333333333 0.0
5.555555555555556E-4 0.0054444444444444445 0.0
5.555555555555556E-4 0.005555555555555556 0.0
5.555555555555556E-4 0.005666666666666667 0.0
5.555555555555556E-4 0.0057777777777777775 0.0
5.555555555555556E-4 0.005888888888888889 0.0
5.555555555555556E-4 0.006 0.0
5.555555555555556E-4 0.01711111111111111 0.0
5.555555555555556E-4 0.028222222222222225 0.0
5.555555555555556E-4 0.03933333333333333 0.0
5.555555555555556E-4 0.050444444444444445 0.0
5.555555555555556E-4 0.06155555555555556 0.0
[...]
POINT_DATA 1353
SCALARS Temperatura float 1
LOOKUP_TABLE default
65.41091322131675
65.27099091665342
65.13000377344063
64.98791702741019
64.84468992497696
64.70026774508278
64.55457670598453
64.40751531679783
64.25893919644608
64.10862823514704
63.95623710037856
63.80111902347841
63.64230279644481
63.47578619191584
63.303404315276964
63.135232340084215
62.96779597307152
62.800338949644434
62.63229824370075
62.46321078212537
62.29264727711781
62.1201925456543
61.945440383125806
41.866805247551625
41.6557366144963
41.69211328311608
41.683194074805854
41.685460366084975
41.684582827408974
41.686136682555926
41.67896878663907
41.0958888147956
41.09106241257215
41.086316208553356
41.08164375190068
41.07703895298834
41.07249635419127
41.06801132657762
41.06358019488855
41.05920030527917
41.05487005518858
65.41368497955747
65.2737564774413
65.13276213878831
64.99066863173623
64.8474352490794
64.70300750299985
64.55731189881061
64.41024767049255
64.26167105917716
64.11136656786303
63.95898328433751
63.80393016335394
63.64504953684871
63.47956809612761
63.31148605267732
63.143794437914146
62.97668577493754
62.80945227770835
62.64160208548827
62.472692053365975
62.30230075990158
62.1300144824349
61.95542512355668
41.869382230632645
41.66072618774349
41.69647692002846
41.68772107846123
41.68994360061035
41.68908189422403
41.69061459013464
41.68351845190698
41.10021664656412
41.09539254885566
41.09064864504634
41.0859783121782
41.08137532151435
41.07683411667651
41.072350008146586
41.06791928963774
41.06353929500425
41.0592084185431
65.41659529461576
65.27666357293775
65.13566462508216
64.99356768977603
64.85033251580836
64.70590522153017
64.56021328566186
64.41315768537252
64.26459826079164
64.11432586285548
63.96200431321638
63.807073085336576
63.64840779919848
63.48419665727616
63.31819212392087
63.152061605790195
62.98584464211393
62.819313285177394
62.65208657405577
62.483771824327484
62.31396618998755
62.14225824053716
61.96823266476348
41.86816582843466
41.66683934162018
41.70069525852541
41.69243391003058
41.69452394721369
41.69371019361029
41.69517869717978
41.688300904677995
41.10457180160705
41.099756787618105
41.09502190345313
41.09035999408065
41.085764408743756
41.08122930057087
41.076749810431465
41.07232215252064
41.06794363506542
41.063612650051475
65.41964521793878
65.27971211714217
65.13871114494164
64.9966140684381
64.8533815444336
64.70896065405354
64.5632804508045
64.41624480426805
64.26771925030495
64.11750529277042
63.96529098397023
63.81055338993651
63.652323802941545
63.48936899183199
63.32502204139287
63.160386501635664
62.99542865189399
62.82998197416516
62.663771670634915
62.496454792673866
62.3276478445309
62.15693690577077
61.9838893467164
41.86314515188328
41.67408061862986
41.70476669725836
41.697333140768706
41.699201241488744
41.69846784636028
41.699828895045435
41.69331643197736
41.108953772522845
41.10415523693345
41.099436643979026
41.09478988672142
41.09020758908534
41.085683437801634
41.0812123315844
41.07679039665597
41.07241493437947
41.068084354858684
65.42283528667623
65.28290209657573
65.14190152483631
64.99980754252863
64.85658203294825
64.71217337703443
64.56651274967604
64.41950794936078
64.27103207138624
64.12090151921821
63.96883452773753
63.81436552866246
63.65671409068072
63.49500665693275
63.33221472371521
63.169096504872066
63.00557914895521
62.84151297965036
62.67666626905193
62.51073309838588
62.343342309791254
62.17406684342105
62.002439266199985
41.85430240296499
41.6824574855054
41.70868857230071
41.702419702025175
41.70397519461864
41.703355037182654
41.70456498881142
41.69856548739565
41.113361685048886
41.10858815283443
41.1038941141173
41.09926997207657
41.094707295008014
41.09019917547698
41.08574028039796
41.08132671870238
41.07695586083561
41.07262618751049
65.42616573294806
65.28623345464236
65.14523552441617
65.00314779190916
64.85993356041766
64.71554280522088
64.5699092987498
64.42294564092546
64.27453415818526
64.12450952907872
63.972625726347715
63.818491095183525
63.661509952654725
63.501061867873375
63.33983040420824
63.17829229528406
63.01636574734836
62.853916015113796
62.690741843419424
62.526565269097375
62.361022288098596
62.193658947931965
62.02394536286699
41.84161256795486
41.691980421770694
41.71245713096157
41.707694893177276
41.708845390724605
41.708372016357075
41.70938669382863
41.70404870263256
41.1177942565362
41.11305610380278
41.108396442199805
41.10380343791659
41.099267262589166
41.094780425041264
41.0903375405466
41.08593490699834
41.08157011890256
41.07724182000991
65.42963658235652
65.28970605082907
65.1487128338317
65.00663440372738
64.86343559147532
64.71906820286327
64.5734689932574
64.42655606110087
64.2782223184244
64.12832325962005
63.976653530040565
63.822905393493365
63.66665457409447
63.507488102209656
63.347856956776816
63.18797363863321
63.0277687569986
62.86713416616089
62.705906745289056
62.543847751255676
62.38060940642081
62.21570225118599
62.048491443255486
41.82504285275141
41.70266307998712
41.71606748539169
41.71316039536293
41.71381128239655
41.71351910244669
41.71429363006063
41.70976690654179
41.122249727141224
41.11756032158117
41.112947229256726
41.1083952364372
41.10389291451804
41.099432539573954
41.09500921981388
41.09061981785287
41.0862623898276
41.081935871227685
65.43324770422507
65.29331964861308
65.15233306776497
65.01026687496763
64.86708748228513
64.72274869605903
64.57719053549103
64.4303371004349
64.28209284606547
64.13233584476876
63.98090505173195
63.827581213912204
63.672098219433046
63.514233759910354
63.35624379731216
63.198079339032816
63.03969937376781
62.88103705434639
62.72198537966417
62.562374083974895
62.40192461001508
62.24012768208391
62.07618591849449
41.804551651850595
41.71452257371807
41.719513530911925
41.71881829508898
41.71887218322273
41.718796686710185
41.71928531284807
41.715721156509616
41.12672574584807
41.12210353259797
41.117552698509655
41.113053157820104
41.10859177920865
41.10416244159008
41.09976163039996
41.09538728612865
41.091038211655224
41.08671377838888
65.43699883989376
65.29707391431681
65.1560957610339
65.01404461477593
64.87088848739732
64.72658328741674
64.58107246560539
64.43428641353732
64.2861416563414
64.13653980430523
63.98536608487374
63.832490648483926
63.67779508309188
63.521241940130906
63.36491622848007
63.20850800074483
63.052015562750746
62.89542609079288
62.73870799534363
62.58179680353662
62.42456165184186
62.26672494038683
62.10716894545196
41.7800865970539
41.72758001515124
41.722787796294085
41.72467112655247
41.724027254827604
41.72420524031116
41.724361138209595
41.72191278857964
41.13121918767438
41.126690485055214
41.12222609312348
41.11778869508924
41.113373714606574
41.108978566997045
41.10460213461377
41.10024393685278
41.09590378054484
41.0915815963168
65.4408896206381
65.30096842005666
65.16000036634753
65.01796694675453
64.87483776724235
64.73057087223908
64.58511319416104
64.43840148330025
64.29036442061894
64.14092726789475
63.99002171541089
63.83760592556403
63.683701664165625
63.52845221277159
63.37378518913079
63.21913321311957
63.0645389465218
62.91005014780425
62.75572195051693
62.60162015713348
62.447826325954324
62.294446359466086
43.367749552571624
43.367749552571624
43.367749552571624
43.367749552571624
43.367749552571624
43.367749552571624
43.367749552571624
43.367749552571624
43.367749552571624
43.367749552571624
41.13135868851101
41.12698760384511
41.12261711256141
41.11825056725259
41.11389049875563
41.109538807086295
41.1051968806166
41.100865668118104
41.096545722282215
66.14804206055095
66.00951516252788
65.87245013885325
65.73686244554165
65.60277770400816
65.4702318341388
65.33927124003284
65.20995295500329
65.08234455686264
64.95652348589573
64.83257503881843
64.71058766602602
64.59064365471707
64.47280407795077
64.35702449170607
64.241485990245
64.12618693259004
64.01112437631882
63.89629345816449
63.78168650030838
63.66729163296999
63.5530904739164
43.367749552571624
43.367749552571624
43.367749552571624
43.367749552571624
43.367749552571624
43.367749552571624
43.367749552571624
43.367749552571624
43.367749552571624
43.367749552571624
41.74232473226828
41.736028575501585
41.72998349664883
41.724188026619906
41.718640998513195
41.71334149539492
41.70828881754936
41.70348246256449
41.69892211324354
66.62101980766163
66.48227745143431
66.34436405504051
66.20727389780708
66.07099724204676
65.93552018784973
65.80082446836097
65.6668872088786
65.53368069858355
65.40117227215676
65.2693244967612
65.1380960377409
65.00744373202951
64.87732620044127
64.74848979091784
64.61975661096722
64.49112445871971
64.36259144703459
64.23415616892456
64.10581793704932
63.9775771536635
63.84943593454475
43.367749552571624
43.367749552571624
43.367749552571624
43.367749552571624
43.367749552571624
43.367749552571624
43.367749552571624
43.367749552571624
43.367749552571624
43.367749552571624
41.74964997750977
41.744578392125284
41.739589680334184
41.73468445176913
41.72986319621954
41.72512629808489
41.720474045513285
41.7159066360141
41.71142417989295
66.86890387315022
66.73018680557269
66.59224961423539
66.45509409530936
66.31872318345656
66.18314102753781
66.04835309804844
65.91436632110722
65.7811892272306
65.64883209019312
65.5173070046392
65.3866278023906
65.2568096633041
65.12786832545403
65.00040360345754
64.87307873726226
64.74589488580958
64.6188531353272
64.49195445589405
64.36519963801813
64.23858919404395
64.11212319117386
43.367749552571624
43.367749552571624
43.367749552571624
43.367749552571624
43.367749552571624
43.367749552571624
43.367749552571624
43.367749552571624
43.367749552571624
43.367749552571624
41.74958110085778
41.74419860148598
41.738942413000146
41.73381227961113
41.72880798756535
41.723929361087905
41.719176259787176
41.71454857703856
41.71004623898442
67.0085406123074
66.86982189304027
66.73182148429224
66.59453901591196
66.45797375253376
66.32212456272772
66.18698987494987
66.05256762119194
65.91885517086996
65.78584926087163
65.6535459348279
65.52194051793273
65.39102766600476
65.2608015153879
65.13195104307218
65.0032211419065
64.87461131777454
64.74612109157727
64.61775001044981
64.48949766436888
64.36136371223984
64.23334792639793
43.367749552571624
43.367749552571624
43.367749552571624
43.367749552571624
43.367749552571624
43.367749552571624
43.367749552571624
43.367749552571624
43.367749552571624
43.367749552571624
41.749581574852776
41.74428027915845
41.739093753820974
41.73402205405302
41.72906522105433
41.72422328316423
41.719496256609496
41.714884145977614
41.71038694451319
67.08301258394131
66.94429280672107
66.80625872926068
66.66891057848163
66.53224864559685
66.39627329729262
66.26098499180385
66.12638429983208
65.9924719298693
65.85924875662788
65.72671584937753
65.59487449339694
65.46372619429938
65.33327265800463
65.2042039406703
65.07525785004903
64.946434555123
64.81773422185518
64.68915701033727
64.56070307047894
64.43237253513217
64.30416550823698
43.367749552571624
43.367749552571624
43.367749552571624
43.367749552571624
43.367749552571624
43.367749552571624
43.367749552571624
43.367749552571624
43.367749552571624
43.367749552571624
41.749588867947345
41.74426629007741
41.739061559213766
41.733974626369104
41.72900544694929
41.724153980420915
41.71942019009233
41.714804042972524
41.71030550968167
67.11940750813845
66.98068800779052
66.8426397161017
66.70526271930555
66.5685570663786
66.432522765042
66.29715977596922
66.16246800513609
66.02844729433411
65.89509741009269
65.76241803177966
65.63040874067258
65.49906901280104
65.3683982175607
65.23909899988459
65.10991983647081
64.98086067250247
64.85192145335178
64.72310212532746
64.59440263684101
64.46582294030888
64.33736299548296
43.367749552571624
43.367749552571624
43.367749552571624
43.367749552571624
43.367749552571624
43.367749552571624
43.367749552571624
43.367749552571624
43.367749552571624
43.367749552571624
41.74958510586665
41.74426820988619
41.7390683249634
41.733985436283604
41.729019527458846
41.724170580631245
41.719438576542224
41.71482349457799
41.71032531279878
67.13026248198473
66.99154276129023
66.85348934929226
66.71610237622127
66.57938196909218
66.44332825400826
66.30794135952002
66.1732214211058
66.0391685868109
65.90578302398066
65.77306492677076
65.64101452361207
65.50963208329836
65.37891791874557
65.24957571682597
65.1203537067906
64.9912519307873
64.8622704308354
64.73340924848284
64.60466842425399
64.47604799672774
64.34754800089999
43.367749552571624
43.367749552571624
43.367749552571624
43.367749552571624
43.367749552571624
43.367749552571624
43.367749552571624
43.367749552571624
43.367749552571624
43.367749552571624
41.749586793290156
41.74426804214742
41.739066580252775
41.73398237933825
41.72901541189519
41.72416565111903
41.71943307087171
41.71481764565686
41.71031935060357
67.11940750813835
66.9806880077904
66.84263971610157
66.70526271930538
66.56855706637832
66.43252276504154
66.29715977596864
66.16246800513544
66.02844729433338
65.89509741009181
65.7624180317786
65.63040874067131
65.49906901279955
65.36839821755899
65.23909899988266
65.10991983646866
64.98086067250016
64.85192145334929
64.72310212532483
64.59440263683828
64.4658229403061
64.33736299548013
43.367749552571624
43.367749552571624
43.367749552571624
43.367749552571624
43.367749552571624
43.367749552571624
43.367749552571624
43.367749552571624
43.367749552571624
43.367749552571624
41.74958510586262
41.74426820988215
41.739068324959355
41.733985436279546
41.729019527454774
41.72417058062713
41.71943857653809
41.71482349457384
41.71032531279464
67.08301258394431
66.94429280672405
66.80625872926367
66.66891057848467
66.53224864559996
66.3962732972958
66.26098499180705
66.12638429983524
65.99247192987242
65.85924875663102
65.72671584938074
65.59487449340024
65.46372619430277
65.33327265800813
65.20420394067393
65.07525785005276
64.94643455512684
64.81773422185915
64.68915701034132
64.56070307048302
64.43237253513624
64.30416550824103
43.367749552571624
43.367749552571624
43.367749552571624
43.367749552571624
43.367749552571624
43.367749552571624
43.367749552571624
43.367749552571624
43.367749552571624
43.367749552571624
41.74958886793468
41.74426629006469
41.73906155920098
41.73397462635624
41.72900544693635
41.724153980407934
41.71942019007932
41.7148040429595
41.71030550966864
67.0085406123121
66.86982189304499
66.73182148429704
66.59453901591678
66.45797375253854
66.32212456273241
66.18698987495455
66.05256762119659
65.91885517087456
65.7858492608761
65.65354593483218
65.52194051793677
65.39102766600857
65.26080151539146
65.13195104307553
65.00322114190969
64.87461131777764
64.74612109158026
64.61775001045274
64.48949766437177
64.36136371224272
64.2333479264008
43.367749552571624
43.367749552571624
43.367749552571624
43.367749552571624
43.367749552571624
43.367749552571624
43.367749552571624
43.367749552571624
43.367749552571624
43.367749552571624
41.74958157485183
41.744280279157515
41.73909375382005
41.73402205405211
41.729065221053446
41.724223283163376
41.719496256608664
41.71488414597677
41.71038694451235
66.86890387316123
66.73018680558368
66.59224961424634
66.45509409532029
66.31872318346744
66.18314102754869
66.04835309805927
65.91436632111802
65.7811892272414
65.64883209020394
65.51730700465008
65.38662780240152
65.25680966331504
65.12786832546497
65.00040360346847
64.87307873727319
64.74589488582045
64.61885313533794
64.49195445590473
64.36519963802873
64.23858919405441
64.1121231911842
43.367749552571624
43.367749552571624
43.367749552571624
43.367749552571624
43.367749552571624
43.367749552571624
43.367749552571624
43.367749552571624
43.367749552571624
43.367749552571624
41.749581100855806
41.74419860148399
41.73894241299814
41.73381227960913
41.728807987563336
41.72392936108588
41.71917625978515
41.714548577036545
41.7100462389824
66.6210198076754
66.4822774514481
66.34436405505437
66.20727389782101
66.07099724206077
65.93552018786383
65.80082446837517
65.66688720889286
65.53368069859785
65.40117227217111
65.26932449677561
65.13809603775537
65.0074437320441
64.877326200456
64.74848979093271
64.61975661098222
64.49112445873486
64.3625914470499
64.23415616893996
64.10581793706481
63.97757715367905
63.84943593456031
43.367749552571624
43.367749552571624
43.367749552571624
43.367749552571624
43.367749552571624
43.367749552571624
43.367749552571624
43.367749552571624
43.367749552571624
43.367749552571624
41.749649977501505
41.74457839211696
41.739589680325814
41.73468445176071
41.72986319621111
41.72512629807646
41.720474045504865
41.71590663600571
41.71142417988457
66.14804206055435
66.00951516253127
65.87245013885665
65.73686244554506
65.60277770401156
65.47023183414215
65.33927124003613
65.20995295500653
65.08234455686586
64.95652348589896
64.83257503882169
64.71058766602927
64.59064365472032
64.47280407795401
64.35702449170928
64.24148599024817
64.12618693259319
64.01112437632186
63.89629345816753
63.78168650031137
63.6672916329729
63.55309047391924
43.367749552571624
43.367749552571624
43.367749552571624
43.367749552571624
43.367749552571624
43.367749552571624
43.367749552571624
43.367749552571624
43.367749552571624
43.367749552571624
41.742324732269026
41.73602857550233
41.729983496649574
41.72418802662066
41.718640998513926
41.71334149539561
41.708288817550006
41.703482462565105
41.698922113244144
65.44088962063842
65.30096842005698
65.16000036634782
65.01796694675477
64.87483776724258
64.73057087223934
64.58511319416141
64.43840148330067
64.29036442061944
64.14092726789531
63.9900217154115
63.83760592556468
63.68370166416632
63.528452212772315
63.373785189131546
63.21913321312041
63.0645389465227
62.910050147805286
62.75572195051798
62.60162015713458
62.44782632595547
62.294446359467265
43.367749552571624
43.367749552571624
43.367749552571624
43.367749552571624
43.367749552571624
43.367749552571624
43.367749552571624
43.367749552571624
43.367749552571624
43.367749552571624
41.13135868850469
41.126987603838835
41.12261711255518
41.11825056724638
41.11389049874945
41.109538807080156
41.105196880610514
41.10086566811204
41.09654572227615
65.43699883989412
65.29707391431718
65.15609576103417
65.01404461477613
64.87088848739758
64.72658328741706
64.58107246560579
64.43428641353775
64.28614165634191
64.13653980430583
63.98536608487434
63.832490648484686
63.67779508309268
63.521241940131674
63.3649162284809
63.20850800074569
63.05201556275166
62.89542609079388
62.73870799534466
62.58179680353772
62.42456165184297
62.26672494038798
62.10716894545316
41.780086597058634
41.72758001516908
41.722787796300686
41.72467112655863
41.724027254852196
41.72420524031695
41.724361138208636
41.72191278858074
41.131219187668044
41.126690485048826
41.12222609311715
41.11778869508296
41.11337371460033
41.10897856699082
41.10460213460759
41.10024393684658
41.095903780538656
41.09158159631064
65.43324770422551
65.2933196486134
65.15233306776526
65.01026687496778
64.86708748228538
64.72274869605936
64.57719053549143
64.43033710043544
64.28209284606609
64.1323358447694
63.98090505173254
63.82758121391301
63.672098219433906
63.51423375991118
63.35624379731306
63.198079339033704
63.039699373768734
62.881037054347395
62.721985379665206
62.56237408397594
62.401924610016145
62.24012768208499
62.07618591849565
41.80455165185542
41.714522573735955
41.719513530918555
41.718818295095204
41.7188721832474
41.71879668671597
41.719285312847134
41.715721156510675
41.12672574584167
41.12210353259158
41.11755269850332
41.11305315781376
41.10859177920238
41.10416244158379
41.09976163039374
41.09538728612238
41.091038211648986
41.08671377838261
65.42963658235695
65.28970605082944
65.14871283383195
65.00663440372755
64.86343559147558
64.71906820286357
64.57346899325778
64.4265560611015
64.27822231842508
64.12832325962076
63.97665353004122
63.822905393494196
63.66665457409538
63.50748810221053
63.347856956777754
63.187973638634126
63.02776875699952
62.86713416616186
62.70590674529008
62.54384775125671
62.38060940642184
62.21570225118707
62.048491443256566
41.82504285275635
41.7026630800051
41.71606748539832
41.71316039536924
41.7138112824213