# vtk DataFile Version 2.0
Niestacjonarne zagadnienie cieplne - ogrzewanie wody w garnku stalowym
ASCII
DATASET UNSTRUCTURED_GRID
POINTS 1353 float
0.0 0.0 0.0
0.0 3.846153846153846E-4 0.0
0.0 7.692307692307692E-4 0.0
0.0 0.0011538461538461537 0.0
0.0 0.0015384615384615385 0.0
0.0 0.0019230769230769232 0.0
0.0 0.0023076923076923075 0.0
0.0 0.002692307692307692 0.0
0.0 0.003076923076923077 0.0
0.0 0.0034615384615384616 0.0
0.0 0.0038461538461538464 0.0
0.0 0.004230769230769231 0.0
0.0 0.004615384615384615 0.0
0.0 0.005 0.0
0.0 0.005111111111111111 0.0
0.0 0.005222222222222223 0.0
0.0 0.005333333333333333 0.0
0.0 0.0054444444444444445 0.0
0.0 0.005555555555555556 0.0
0.0 0.005666666666666667 0.0
0.0 0.0057777777777777775 0.0
0.0 0.005888888888888889 0.0
0.0 0.006 0.0
0.0 0.01711111111111111 0.0
0.0 0.028222222222222225 0.0
0.0 0.03933333333333333 0.0
0.0 0.050444444444444445 0.0
0.0 0.06155555555555556 0.0
0.0 0.07266666666666667 0.0
0.0 0.08377777777777778 0.0
0.0 0.0948888888888889 0.0
0.0 0.10600000000000001 0.0
0.0 0.10611111111111113 0.0
0.0 0.10622222222222223 0.0
0.0 0.10633333333333335 0.0
0.0 0.10644444444444445 0.0
0.0 0.10655555555555557 0.0
0.0 0.10666666666666667 0.0
0.0 0.10677777777777779 0.0
0.0 0.1068888888888889 0.0
0.0 0.10700000000000001 0.0
1.1111111111111112E-4 0.0 0.0
1.1111111111111112E-4 3.846153846153846E-4 0.0
1.1111111111111112E-4 7.692307692307692E-4 0.0
1.1111111111111112E-4 0.0011538461538461537 0.0
1.1111111111111112E-4 0.0015384615384615385 0.0
1.1111111111111112E-4 0.0019230769230769232 0.0
1.1111111111111112E-4 0.0023076923076923075 0.0
1.1111111111111112E-4 0.002692307692307692 0.0
1.1111111111111112E-4 0.003076923076923077 0.0
1.1111111111111112E-4 0.0034615384615384616 0.0
1.1111111111111112E-4 0.0038461538461538464 0.0
1.1111111111111112E-4 0.004230769230769231 0.0
1.1111111111111112E-4 0.004615384615384615 0.0
1.1111111111111112E-4 0.005 0.0
1.1111111111111112E-4 0.005111111111111111 0.0
1.1111111111111112E-4 0.005222222222222223 0.0
1.1111111111111112E-4 0.005333333333333333 0.0
1.1111111111111112E-4 0.0054444444444444445 0.0
1.1111111111111112E-4 0.005555555555555556 0.0
1.1111111111111112E-4 0.005666666666666667 0.0
1.1111111111111112E-4 0.0057777777777777775 0.0
1.1111111111111112E-4 0.005888888888888889 0.0
1.1111111111111112E-4 0.006 0.0
1.1111111111111112E-4 0.01711111111111111 0.0
1.1111111111111112E-4 0.028222222222222225 0.0
1.1111111111111112E-4 0.03933333333333333 0.0
1.1111111111111112E-4 0.050444444444444445 0.0
1.1111111111111112E-4 0.06155555555555556 0.0
1.1111111111111112E-4 0.07266666666666667 0.0
1.1111111111111112E-4 0.08377777777777778 0.0
1.1111111111111112E-4 0.0948888888888889 0.0
1.1111111111111112E-4 0.10600000000000001 0.0
1.1111111111111112E-4 0.10611111111111113 0.0
1.1111111111111112E-4 0.10622222222222223 0.0
1.1111111111111112E-4 0.10633333333333335 0.0
1.1111111111111112E-4 0.10644444444444445 0.0
1.1111111111111112E-4 0.10655555555555557 0.0
1.1111111111111112E-4 0.10666666666666667 0.0
1.1111111111111112E-4 0.10677777777777779 0.0
1.1111111111111112E-4 0.1068888888888889 0.0
1.1111111111111112E-4 0.10700000000000001 0.0
2.2222222222222223E-4 0.0 0.0
2.2222222222222223E-4 3.846153846153846E-4 0.0
2.2222222222222223E-4 7.692307692307692E-4 0.0
2.2222222222222223E-4 0.0011538461538461537 0.0
2.2222222222222223E-4 0.0015384615384615385 0.0
2.2222222222222223E-4 0.0019230769230769232 0.0
2.2222222222222223E-4 0.0023076923076923075 0.0
2.2222222222222223E-4 0.002692307692307692 0.0
2.2222222222222223E-4 0.003076923076923077 0.0
2.2222222222222223E-4 0.0034615384615384616 0.0
2.2222222222222223E-4 0.0038461538461538464 0.0
2.2222222222222223E-4 0.004230769230769231 0.0
2.2222222222222223E-4 0.004615384615384615 0.0
2.2222222222222223E-4 0.005 0.0
2.2222222222222223E-4 0.005111111111111111 0.0
2.2222222222222223E-4 0.005222222222222223 0.0
2.2222222222222223E-4 0.005333333333333333 0.0
2.2222222222222223E-4 0.0054444444444444445 0.0
2.2222222222222223E-4 0.005555555555555556 0.0
2.2222222222222223E-4 0.005666666666666667 0.0
2.2222222222222223E-4 0.0057777777777777775 0.0
2.2222222222222223E-4 0.005888888888888889 0.0
2.2222222222222223E-4 0.006 0.0
2.2222222222222223E-4 0.01711111111111111 0.0
2.2222222222222223E-4 0.028222222222222225 0.0
2.2222222222222223E-4 0.03933333333333333 0.0
2.2222222222222223E-4 0.050444444444444445 0.0
2.2222222222222223E-4 0.06155555555555556 0.0
2.2222222222222223E-4 0.07266666666666667 0.0
2.2222222222222223E-4 0.08377777777777778 0.0
2.2222222222222223E-4 0.0948888888888889 0.0
2.2222222222222223E-4 0.10600000000000001 0.0
2.2222222222222223E-4 0.10611111111111113 0.0
2.2222222222222223E-4 0.10622222222222223 0.0
2.2222222222222223E-4 0.10633333333333335 0.0
2.2222222222222223E-4 0.10644444444444445 0.0
2.2222222222222223E-4 0.10655555555555557 0.0
2.2222222222222223E-4 0.10666666666666667 0.0
2.2222222222222223E-4 0.10677777777777779 0.0
2.2222222222222223E-4 0.1068888888888889 0.0
2.2222222222222223E-4 0.10700000000000001 0.0
3.333333333333334E-4 0.0 0.0
3.333333333333334E-4 3.846153846153846E-4 0.0
3.333333333333334E-4 7.692307692307692E-4 0.0
3.333333333333334E-4 0.0011538461538461537 0.0
3.333333333333334E-4 0.0015384615384615385 0.0
3.333333333333334E-4 0.0019230769230769232 0.0
3.333333333333334E-4 0.0023076923076923075 0.0
3.333333333333334E-4 0.002692307692307692 0.0
3.333333333333334E-4 0.003076923076923077 0.0
3.333333333333334E-4 0.0034615384615384616 0.0
3.333333333333334E-4 0.0038461538461538464 0.0
3.333333333333334E-4 0.004230769230769231 0.0
3.333333333333334E-4 0.004615384615384615 0.0
3.333333333333334E-4 0.005 0.0
3.333333333333334E-4 0.005111111111111111 0.0
3.333333333333334E-4 0.005222222222222223 0.0
3.333333333333334E-4 0.005333333333333333 0.0
3.333333333333334E-4 0.0054444444444444445 0.0
3.333333333333334E-4 0.005555555555555556 0.0
3.333333333333334E-4 0.005666666666666667 0.0
3.333333333333334E-4 0.0057777777777777775 0.0
3.333333333333334E-4 0.005888888888888889 0.0
3.333333333333334E-4 0.006 0.0
3.333333333333334E-4 0.01711111111111111 0.0
3.333333333333334E-4 0.028222222222222225 0.0
3.333333333333334E-4 0.03933333333333333 0.0
3.333333333333334E-4 0.050444444444444445 0.0
3.333333333333334E-4 0.06155555555555556 0.0
3.333333333333334E-4 0.07266666666666667 0.0
3.333333333333334E-4 0.08377777777777778 0.0
3.333333333333334E-4 0.0948888888888889 0.0
3.333333333333334E-4 0.10600000000000001 0.0
3.333333333333334E-4 0.10611111111111113 0.0
3.333333333333334E-4 0.10622222222222223 0.0
3.333333333333334E-4 0.10633333333333335 0.0
3.333333333333334E-4 0.10644444444444445 0.0
3.333333333333334E-4 0.10655555555555557 0.0
3.333333333333334E-4 0.10666666666666667 0.0
3.333333333333334E-4 0.10677777777777779 0.0
3.333333333333334E-4 0.1068888888888889 0.0
3.333333333333334E-4 0.10700000000000001 0.0
4.4444444444444447E-4 0.0 0.0
4.4444444444444447E-4 3.846153846153846E-4 0.0
4.4444444444444447E-4 7.692307692307692E-4 0.0
4.4444444444444447E-4 0.0011538461538461537 0.0
4.4444444444444447E-4 0.0015384615384615385 0.0
4.4444444444444447E-4 0.0019230769230769232 0.0
4.4444444444444447E-4 0.0023076923076923075 0.0
4.4444444444444447E-4 0.002692307692307692 0.0
4.4444444444444447E-4 0.003076923076923077 0.0
4.4444444444444447E-4 0.0034615384615384616 0.0
4.4444444444444447E-4 0.0038461538461538464 0.0
4.4444444444444447E-4 0.004230769230769231 0.0
4.4444444444444447E-4 0.004615384615384615 0.0
4.4444444444444447E-4 0.005 0.0
4.4444444444444447E-4 0.005111111111111111 0.0
4.4444444444444447E-4 0.005222222222222223 0.0
4.4444444444444447E-4 0.005333333333333333 0.0
4.4444444444444447E-4 0.0054444444444444445 0.0
4.4444444444444447E-4 0.005555555555555556 0.0
4.4444444444444447E-4 0.005666666666666667 0.0
4.4444444444444447E-4 0.0057777777777777775 0.0
4.4444444444444447E-4 0.005888888888888889 0.0
4.4444444444444447E-4 0.006 0.0
4.4444444444444447E-4 0.01711111111111111 0.0
4.4444444444444447E-4 0.028222222222222225 0.0
4.4444444444444447E-4 0.03933333333333333 0.0
4.4444444444444447E-4 0.050444444444444445 0.0
4.4444444444444447E-4 0.06155555555555556 0.0
4.4444444444444447E-4 0.07266666666666667 0.0
4.4444444444444447E-4 0.08377777777777778 0.0
4.4444444444444447E-4 0.0948888888888889 0.0
4.4444444444444447E-4 0.10600000000000001 0.0
4.4444444444444447E-4 0.10611111111111113 0.0
4.4444444444444447E-4 0.10622222222222223 0.0
4.4444444444444447E-4 0.10633333333333335 0.0
4.4444444444444447E-4 0.10644444444444445 0.0
4.4444444444444447E-4 0.10655555555555557 0.0
4.4444444444444447E-4 0.10666666666666667 0.0
4.4444444444444447E-4 0.10677777777777779 0.0
4.4444444444444447E-4 0.1068888888888889 0.0
4.4444444444444447E-4 0.10700000000000001 0.0
5.555555555555556E-4 0.0 0.0
5.555555555555556E-4 3.846153846153846E-4 0.0
5.555555555555556E-4 7.692307692307692E-4 0.0
5.555555555555556E-4 0.0011538461538461537 0.0
5.555555555555556E-4 0.0015384615384615385 0.0
5.555555555555556E-4 0.0019230769230769232 0.0
5.555555555555556E-4 0.0023076923076923075 0.0
5.555555555555556E-4 0.002692307692307692 0.0
5.555555555555556E-4 0.003076923076923077 0.0
5.555555555555556E-4 0.0034615384615384616 0.0
5.555555555555556E-4 0.0038461538461538464 0.0
5.555555555555556E-4 0.004230769230769231 0.0
5.555555555555556E-4 0.004615384615384615 0.0
5.555555555555556E-4 0.005 0.0
5.555555555555556E-4 0.005111111111111111 0.0
5.555555555555556E-4 0.005222222222222223 0.0
5.555555555555556E-4 0.005333333333333333 0.0
5.555555555555556E-4 0.0054444444444444445 0.0
5.555555555555556E-4 0.005555555555555556 0.0
5.555555555555556E-4 0.005666666666666667 0.0
5.555555555555556E-4 0.0057777777777777775 0.0
5.555555555555556E-4 0.005888888888888889 0.0
5.555555555555556E-4 0.006 0.0
5.555555555555556E-4 0.01711111111111111 0.0
5.555555555555556E-4 0.028222222222222225 0.0
5.555555555555556E-4 0.03933333333333333 0.0
5.555555555555556E-4 0.050444444444444445 0.0
5.555555555555556E-4 0.06155555555555556 0.0
[...]
POINT_DATA 1353
SCALARS Temperatura float 1
LOOKUP_TABLE default
100.87684935058702
100.74405017539185
100.60981599342531
100.47410797822786
100.3368782537078
100.19806111465823
100.05756636484456
99.91526743113518
99.77098042235568
99.62441705606463
99.47511926719213
99.32218717442059
99.16433219515454
98.99513344740545
98.81617116229438
98.64530062217398
98.47639341986712
98.30827371923459
98.14013353432227
97.97136407687081
97.80143420481652
97.62985079360301
97.45614300208696
77.7289039041777
77.52535637468279
77.56028510818982
77.55167568894716
77.55397038206952
77.55266662726687
77.55608566847026
77.53839513716431
76.15316560968816
76.14104272581785
76.12907600974023
76.11723865012407
76.10550542629451
76.09385378829076
76.08226464061471
76.07072283990594
76.05921746476552
76.04774193501193
100.88174237585687
100.74893748255917
100.61469667301498
100.47898256747658
100.34174736511649
100.20292566026106
100.06242763911862
99.92012779220914
99.775842879118
99.62929206603995
99.48000529722941
99.32718036017955
99.16918255871406
99.00181331905313
98.83060481481566
98.66054323364186
98.49216043585238
98.32436737590189
98.15648489856987
97.98794105911473
97.8182209819728
97.64683754529524
97.47332093542693
77.73884592889407
77.53765904624272
77.57197486159538
77.56352588610838
77.56577605696282
77.5644941209256
77.56786802852474
77.55034284272378
76.16460293220058
76.15249135115933
76.14053581229497
76.12870881699608
76.11698458975157
76.10534018719362
76.09375627262244
76.08221757905353
76.07071313586978
76.05923635012756
100.886794348802
100.75398682563184
100.61974230564459
100.48402602144098
100.34679071933385
100.20797177819955
100.06748072309743
99.925194456234
99.78093484627769
99.63442981017518
99.48523058398435
99.33257963342628
99.1748815722575
99.0096497561911
98.84198785047926
98.67451804921738
98.50748841843688
98.3406775422656
98.17360592818551
98.0057948419239
97.83676889838928
97.6660553331713
97.4931851173861
77.74505692551097
77.55104093271486
77.58350152846646
77.57553816333005
77.57765356643927
77.57643774823059
77.57967468623914
77.56265315804245
76.17594775917814
76.16387582884181
76.15195942590874
76.14016892753655
76.12847687588375
76.11685917133798
76.1052958026183
76.09377118607686
76.08227424824973
76.07079838611578
100.89200629580198
100.75919809262984
100.62495277460964
100.48923817114876
100.35200808416403
100.21319914963559
100.072725048932
99.93046670837548
99.78625401679145
99.63982971710236
99.49078016744694
99.33839855431819
99.18133811756303
99.01810225441002
98.85306168631287
98.68788864937564
98.52268825347812
98.35734275010938
98.1915612177447
98.02495668122613
97.85709801551434
97.6875256803439
97.51576445029804
77.74752540640938
77.56550669740837
77.59486347577396
77.58771309872444
77.58960271826241
77.58849769402805
77.59150533105758
77.57532687064678
76.18719824900445
76.17519677735721
76.1633496731551
76.15162351305861
76.1399879503944
76.1284170322256
76.11688978582076
76.10539027679424
76.09390740203403
76.08243462847491
100.89737871159993
100.76457122611454
100.63032785716248
100.49461873071255
100.35739907454973
100.2186072225204
100.0781597579743
99.93594308188516
99.79179767524893
99.64548724504156
99.4966409836858
99.34463259391624
99.18841108567169
99.02704680140764
98.86428970457698
98.70128941739584
98.5380648034334
98.37451538402114
98.21041944054667
98.0454561642858
97.87922793942002
97.71127758900201
97.54110711215911
77.7462326225094
77.58106399987658
77.60605799305257
77.60005163740334
77.60162318050358
77.60067425308212
77.6033594343418
77.58836527098198
76.19835124589603
76.18645556284821
76.17471187790997
76.16308081968626
76.15152784630827
76.14002465404495
76.1285493529866
76.1170859366617
76.10562357050787
76.09415599818009
100.90291176879083
100.77010610787372
100.63586724418751
100.50016729581714
100.3629631549024
100.22419523620907
100.08378367588924
99.9416215608807
99.79756230140529
99.65139534864866
99.50280016643455
99.35125579272632
99.19598996449673
99.03642308816318
98.87582362079664
98.71496114300588
98.55381650336103
98.39229535419463
98.23021378083793
98.06729322938935
97.90315805466052
97.73733715512138
97.56928136908803
77.74115232876036
77.59772356536256
77.61708127123482
77.61255509826793
77.61371447851178
77.61296783426032
77.61523623653146
77.60177019799106
76.20940211421433
76.19765497107694
76.18605505165844
76.17455405656722
76.16311193554289
76.15169810115799
76.14029046520422
76.12887375416646
76.11743801260171
76.10597762628403
100.90860541665789
100.77580251850868
100.64157053816656
100.50588334709951
100.36869964584965
100.22996223755098
100.08959533616017
99.94749967883665
99.80354350456015
99.65754554659759
99.50924239683268
99.35823243029365
99.2039892302985
99.04618040117896
98.88769669630061
98.72898076936882
98.57000668914179
98.41069753279504
98.25090777318175
98.09040445063246
97.92883732375762
97.76570968893911
97.60037727932084
77.73225030386102
77.61549932275649
77.62792836208288
77.62522518650518
77.62587598965668
77.62537896745661
77.6271347259454
77.61554411471238
76.22034446276457
76.20880067458212
76.1973942890893
76.18606361735577
76.1747624165884
76.16345932000503
76.15213411155793
76.14077372933492
76.12937003767868
76.11791857567546
100.91445943180831
100.78166012581907
100.64743724799509
100.51176625409298
100.374607733104
100.23590709814957
100.09559302088762
99.95357458189378
99.80973618589796
99.66392828519722
99.51594972419257
99.36552356454635
99.21233898031326
99.05626511736794
98.89988457273239
98.74333394302342
98.58660208098657
98.42964529046183
98.27237190466641
98.11461976823865
97.9561129083069
97.79634248587622
97.63451010045962
77.71948340618275
77.63440866964173
77.63859310245165
77.63806401612601
77.63810693431343
77.63790831501952
77.6390536037075
77.62969023411578
76.2311696840014
76.21990478993457
76.20875559641976
76.19764106427728
76.18650998462877
76.17533665570761
76.16410623845294
76.15280992303573
76.14144253184153
76.13000133301715
100.92047344692367
100.78767848421224
100.6534667854766
100.51781527918934
100.38068647749635
100.24202853511854
100.1017748045999
99.95984310566398
99.81613473549511
99.67053318595512
99.52290231506083
99.37308995488355
99.22097844973173
99.06661888362792
98.91232937314443
98.75795051292849
98.6034999773379
98.44898107353062
98.2943744461438
98.139624070401
97.98460445147282
97.82904022504701
97.67182712352812
77.70279770302159
77.65447298876101
77.649067969935
77.65107415172803
77.65040635989288
77.65055669125825
77.65099122374544
77.64421273568082
76.2418661576501
76.23099255147508
76.22019051752021
76.20933282933773
76.19839477354178
76.18736465810335
76.17623714770981
76.16500971346497
76.15368117118423
76.1422510131665
100.92664696918115
100.79385703825845
100.65965846405174
100.52402958172485
100.38693482589443
100.24832513406554
100.10813860014842
99.96630186547601
99.82273322480587
99.67734934797492
99.53007935679169
99.3808931626467
99.2298521932131
99.07717996299384
98.92495404067442
98.77272709651248
98.62055217965757
98.46848681827748
98.31659508364883
98.16495076944173
98.01364245777376
97.86278217057979
80.396591416821
80.396591416821
80.396591416821
80.396591416821
80.396591416821
80.396591416821
80.396591416821
80.396591416821
80.396591416821
80.396591416821
76.24219177403712
76.23178040435698
76.22120074563075
76.21046511321454
76.19958265109706
76.18856016203422
76.17740258832777
76.16611329973622
76.15469426660857
101.88718002357267
101.75606614675613
101.6265134754886
101.49854031832136
101.3721770554323
101.24746628927929
101.12446303159474
101.0032347962599
100.88386133415062
100.76643349277289
100.65105017744531
100.53781151480727
100.4268059401249
100.31809171548703
100.21145948629729
100.1050693962239
99.9989187930445
99.89300389470463
99.78731922542835
99.68185675103953
99.57660450575389
99.47154425370798
80.396591416821
80.396591416821
80.396591416821
80.396591416821
80.396591416821
80.396591416821
80.396591416821
80.396591416821
80.396591416821
80.396591416821
77.69143527731217
77.67666553234828
77.66230472941041
77.64834830914229
77.63479275088233
77.62163534679294
77.60887407043539
77.59650749770496
77.58453475911148
102.51923589540066
102.38786424937015
102.25726937535342
102.12744439565077
101.99837763267969
101.87005243823945
101.74244695904126
101.61553387157802
101.48928015518753
101.36364704105259
101.23859041350632
101.11406218165747
100.99001325449609
100.86639802617697
100.74395336599024
100.62159044044662
100.49930680586836
100.37710028239424
100.25496910450786
100.13291215266041
100.01092932192213
99.88902215047737
80.396591416821
80.396591416821
80.396591416821
80.396591416821
80.396591416821
80.396591416821
80.396591416821
80.396591416821
80.396591416821
80.396591416821
77.70978111030465
77.69786796616373
77.68596841436818
77.67408422506445
77.66221679921796
77.65036723046282
77.63853634134686
77.62672470529104
77.61493265991898
102.85306336656252
102.72172151120652
102.59108140690158
102.46114513142504
102.33191610912263
102.20339920046631
102.07560082746936
101.94852912734409
101.8221941174277
101.69660783591264
101.5717843852166
101.44773973847683
101.32449113540942
101.20205608324908
101.08100911008538
100.96008432749547
100.8392830346918
100.71860647347401
100.59805578892481
100.47763196825692
100.35733574275078
100.23716741975836
80.396591416821
80.396591416821
80.396591416821
80.396591416821
80.396591416821
80.396591416821
80.396591416821
80.396591416821
80.396591416821
80.396591416821
77.70965031214037
77.69701342211647
77.68449202940394
77.67208548999004
77.65979328212946
77.64761498927463
77.63555028997297
77.62359895168666
77.61176082701219
103.04101167497622
102.9096678885027
102.77894368455495
102.64883856870348
102.51935160813848
102.39048139512194
102.26222599525128
102.13458288200593
102.00754886141718
101.8811199955817
101.75529154390067
101.63005795904203
101.5054129846133
101.3813498520495
101.25855309146627
101.13585532954544
101.01325598522827
100.89075448764983
100.76835028617944
100.64604286634447
100.52383177569303
100.40171666847854
80.396591416821
80.396591416821
80.396591416821
80.396591416821
80.396591416821
80.396591416821
80.396591416821
80.396591416821
80.396591416821
80.396591416821
77.70965151543685
77.69720369431283
77.68484428925765
77.6725734871134
77.66039143567596
77.64829824844034
77.63629400744301
77.62437876502099
77.61255254489728
103.14148405850553
103.0101389451087
102.87936958774141
102.74917620292938
102.61955908104818
102.49051859958047
102.36205524205373
102.23416962248798
102.10686251460595
101.98013488379485
101.85398791708775
101.72842304150046
101.6034419181865
101.47904641287566
101.35592531307651
101.23290508880036
101.10998592423655
100.9871680020077
100.8644515006625
100.74183659057871
100.6193234271801
100.49691213906704
80.396591416821
80.396591416821
80.396591416821
80.396591416821
80.396591416821
80.396591416821
80.396591416821
80.396591416821
80.396591416821
80.396591416821
77.70966874523295
77.69717137012083
77.68476963118785
77.67246344408063
77.66025273655563
77.64813744714515
77.63611752434721
77.62419292611779
77.61236361955427
103.19063122273239
103.05928642709793
102.92849771464952
102.79826513629015
102.66858869743255
102.53946835326268
102.4109040019127
102.28289547549979
102.15544252912348
102.02854482825019
101.90220193567428
101.77641330065772
101.65117825371252
101.52649600685837
101.40307155380044
101.27974475641452
101.15651554201342
101.03338383758711
100.91034957044042
100.7874126692867
100.66457306611106
100.54183069949185
80.396591416821
80.396591416821
80.396591416821
80.396591416821
80.396591416821
80.396591416821
80.396591416821
80.396591416821
80.396591416821
80.396591416821
77.70966003971151
77.69717589510905
77.68478542485065
77.67248863192874
77.66028551528056
77.6481760701902
77.63616028853676
77.62423815895208
77.61240966692033
103.20530158511998
103.07395652027337
102.94316097122683
102.81291504120463
102.68321882853189
102.55407242936604
102.42547594166165
102.29742947043171
102.16993313431419
102.04298707329745
101.91659145708671
101.7907464928913
101.66545243096938
101.54070956805529
101.41722456486787
101.29383730290556
101.17054782194253
101.04735616189026
100.92426236251478
100.80126646292632
100.67836850068298
100.5555685101637
80.396591416821
80.396591416821
80.396591416821
80.396591416821
80.396591416821
80.396591416821
80.396591416821
80.396591416821
80.396591416821
80.396591416821
77.70966399051
77.69717552588901
77.68478138848785
77.67248154738691
77.66027597380365
77.64816464088256
77.63614752356379
77.62422459849907
77.61239584399793
103.1906312227321
103.05928642709762
102.92849771464918
102.79826513628974
102.66858869743196
102.53946835326184
102.41090400191167
102.28289547549865
102.15544252912221
102.02854482824868
101.9022019356725
101.77641330065562
101.6511782537101
101.52649600685561
101.40307155379735
101.27974475641109
101.15651554200976
101.03338383758316
100.91034957043624
100.78741266928239
100.66457306610666
100.54183069948738
80.396591416821
80.396591416821
80.396591416821
80.396591416821
80.396591416821
80.396591416821
80.396591416821
80.396591416821
80.396591416821
80.396591416821
77.70966003970393
77.69717589510148
77.68478542484307
77.67248863192115
77.66028551527293
77.64817607018252
77.63616028852904
77.62423815894437
77.61240966691263
103.14148405851014
103.01013894511331
102.87936958774604
102.74917620293407
102.61955908105298
102.4905185995854
102.3620552420587
102.2341696224929
102.10686251461081
101.98013488379972
101.85398791709274
101.7284230415056
101.60344191819175
101.47904641288109
101.35592531308214
101.23290508880615
101.10998592424248
100.98716800201383
100.86445150066872
100.741836590585
100.61932342718636
100.49691213907325
80.396591416821
80.396591416821
80.396591416821
80.396591416821
80.396591416821
80.396591416821
80.396591416821
80.396591416821
80.396591416821
80.396591416821
77.70966874520951
77.69717137009728
77.68476963116419
77.67246344405683
77.66025273653169
77.6481374471211
77.63611752432308
77.62419292609363
77.61236361953013
103.04101167498368
102.90966788851017
102.7789436845625
102.64883856871108
102.51935160814605
102.39048139512937
102.26222599525867
102.13458288201328
102.00754886142444
101.88111999558873
101.7552915439074
101.6300579590484
101.50541298461933
101.38134985205514
101.25855309147158
101.1358553295505
101.01325598523317
100.89075448765459
100.76835028618409
100.64604286634902
100.52383177569756
100.40171666848305
80.396591416821
80.396591416821
80.396591416821
80.396591416821
80.396591416821
80.396591416821
80.396591416821
80.396591416821
80.396591416821
80.396591416821
77.70965151543508
77.69720369431107
77.6848442892559
77.67257348711168
77.66039143567428
77.64829824843872
77.63629400744144
77.6243787650194
77.6125525448957
102.85306336657965
102.72172151122365
102.59108140691866
102.46114513144207
102.3319161091396
102.20339920048326
102.07560082748624
101.94852912736093
101.82219411744455
101.69660783592956
101.57178438523358
101.4477397384939
101.32449113542651
101.2020560832662
101.0810091101025
100.96008432751259
100.83928303470884
100.71860647349084
100.59805578894155
100.47763196827356
100.35733574276722
100.23716741977462
80.396591416821
80.396591416821
80.396591416821
80.396591416821
80.396591416821
80.396591416821
80.396591416821
80.396591416821
80.396591416821
80.396591416821
77.7096503121367
77.69701342211276
77.6844920294002
77.67208548998629
77.65979328212569
77.64761498927082
77.63555028996916
77.62359895168285
77.6117608270084
102.5192358954222
102.3878642493917
102.25726937537505
102.12744439567251
101.99837763270156
101.87005243826145
101.7424469590634
101.61553387160028
101.48928015520984
101.36364704107497
101.23859041352878
101.11406218168007
100.99001325451887
100.86639802619995
100.74395336601343
100.62159044047004
100.49930680589198
100.37710028241811
100.25496910453187
100.13291215268454
100.01092932194634
99.88902215050159
80.396591416821
80.396591416821
80.396591416821
80.396591416821
80.396591416821
80.396591416821
80.396591416821
80.396591416821
80.396591416821
80.396591416821
77.70978111028927
77.69786796614828
77.68596841435266
77.67408422504884
77.66221679920233
77.65036723044719
77.63853634133126
77.62672470527548
77.61493265990342
101.88718002357808
101.75606614676155
101.62651347549402
101.4985403183268
101.37217705543773
101.24746628928463
101.1244630316
101.00323479626509
100.88386133415582
100.76643349277809
100.65105017745053
100.53781151481249
100.4268059401301
100.31809171549223
100.21145948630243
100.10506939622898
99.99891879304953
99.89300389470951
99.7873192254332
99.68185675104431
99.57660450575854
99.47154425371254
80.396591416821
80.396591416821
80.396591416821
80.396591416821
80.396591416821
80.396591416821
80.396591416821
80.396591416821
80.396591416821
80.396591416821
77.69143527731359
77.67666553234969
77.6623047294118
77.6483483091437
77.63479275088369
77.62163534679422
77.60887407043657
77.59650749770607
77.58453475911257
100.92664696918165
100.79385703825895
100.65965846405221
100.52402958172522
100.38693482589474
100.24832513406591
100.10813860014892
99.96630186547664
99.82273322480657
99.67734934797572
99.53007935679253
99.38089316264767
99.2298521932142
99.07717996299495
98.9249540406756
98.77272709651378
98.62055217965897
98.46848681827909
98.31659508365048
98.16495076944345
98.01364245777555
97.86278217058164
80.396591416821
80.396591416821
80.396591416821
80.396591416821
80.396591416821
80.396591416821
80.396591416821
80.396591416821
80.396591416821
80.396591416821
76.24219177402533
76.23178040434529
76.22120074561916
76.210465113203
76.19958265108556
76.1885601620228
76.17740258831644
76.16611329972493
76.15469426659729
100.92047344692423
100.78767848421279
100.6534667854771
100.51781527918966
100.38068647749665
100.24202853511879
100.10177480460042
99.95984310566463
99.81613473549587
99.67053318595599
99.5229023150617
99.3730899548846
99.22097844973295
99.06661888362912
98.9123293731457
98.75795051292981
98.60349997733925
98.44898107353214
98.2943744461454
98.13962407040262
97.98460445147448
97.82904022504867
97.67182712352981
77.7027977030303
77.65447298879404
77.64906796994711
77.65107415173982
77.65040635993863
77.65055669126896
77.65099122374363
77.64421273568283
76.24186615763826
76.23099255146327
76.22019051750848
76.20933282932609
76.19839477353014
76.18736465809171
76.17623714769827
76.16500971345341
76.15368117117274
76.14225101315502
100.91445943180896
100.78166012581964
100.6474372479956
100.51176625409319
100.3746077331044
100.23590709814977
100.09559302088816
99.95357458189454
99.80973618589886
99.66392828519805
99.51594972419342
99.36552356454749
99.2123389803146
99.0562651173692
98.8998845727337
98.74333394302475
98.58660208098793
98.42964529046331
98.27237190466792
98.11461976824017
97.95611290830844
97.79634248587783
97.63451010046131
77.7194834061916
77.63440866967474
77.63859310246382
77.63806401613782
77.63810693435939
77.63790831503022
77.63905360370572
77.62969023411769
76.23116968398948
76.21990478992267
76.20875559640791
76.1976410642655
76.18650998461699
76.17533665569584
76.16410623844125
76.15280992302404
76.14144253182977
76.13000133300548
100.9086054166586
100.77580251850918
100.64157053816703
100.50588334709973
100.36869964584993
100.22996223755126
100.08959533616057
99.94749967883743
99.80354350456109
99.65754554659848
99.50924239683351
99.3582324302948
99.20398923029994
99.04618040118028
98.88769669630196
98.72898076937015
98.57000668914316
98.41069753279642
98.25090777318319
98.09040445063394
97.92883732375915
97.76570968894066
97.60037727932237
77.73225030387013
77.6154993227896
77.62792836209505
77.62522518651714
77.6258759897028
77.62537896746738
77.62713472594356
77.61554411471424
76.22034446275256
76.2088006745701
76.19739428907732
76.18606361734383
76.17476241657656
76.1634593199932
76.15213411154615
76.14077372932313
76.12937003766692
76.11791857566361
100.90291176879143
100.77010610787417
100.63586724418802
100.50016729581733