# vtk DataFile Version 2.0
Niestacjonarne zagadnienie cieplne - ogrzewanie wody w garnku stalowym
ASCII
DATASET UNSTRUCTURED_GRID
POINTS 1353 float
0.0 0.0 0.0
0.0 3.846153846153846E-4 0.0
0.0 7.692307692307692E-4 0.0
0.0 0.0011538461538461537 0.0
0.0 0.0015384615384615385 0.0
0.0 0.0019230769230769232 0.0
0.0 0.0023076923076923075 0.0
0.0 0.002692307692307692 0.0
0.0 0.003076923076923077 0.0
0.0 0.0034615384615384616 0.0
0.0 0.0038461538461538464 0.0
0.0 0.004230769230769231 0.0
0.0 0.004615384615384615 0.0
0.0 0.005 0.0
0.0 0.005111111111111111 0.0
0.0 0.005222222222222223 0.0
0.0 0.005333333333333333 0.0
0.0 0.0054444444444444445 0.0
0.0 0.005555555555555556 0.0
0.0 0.005666666666666667 0.0
0.0 0.0057777777777777775 0.0
0.0 0.005888888888888889 0.0
0.0 0.006 0.0
0.0 0.01711111111111111 0.0
0.0 0.028222222222222225 0.0
0.0 0.03933333333333333 0.0
0.0 0.050444444444444445 0.0
0.0 0.06155555555555556 0.0
0.0 0.07266666666666667 0.0
0.0 0.08377777777777778 0.0
0.0 0.0948888888888889 0.0
0.0 0.10600000000000001 0.0
0.0 0.10611111111111113 0.0
0.0 0.10622222222222223 0.0
0.0 0.10633333333333335 0.0
0.0 0.10644444444444445 0.0
0.0 0.10655555555555557 0.0
0.0 0.10666666666666667 0.0
0.0 0.10677777777777779 0.0
0.0 0.1068888888888889 0.0
0.0 0.10700000000000001 0.0
1.1111111111111112E-4 0.0 0.0
1.1111111111111112E-4 3.846153846153846E-4 0.0
1.1111111111111112E-4 7.692307692307692E-4 0.0
1.1111111111111112E-4 0.0011538461538461537 0.0
1.1111111111111112E-4 0.0015384615384615385 0.0
1.1111111111111112E-4 0.0019230769230769232 0.0
1.1111111111111112E-4 0.0023076923076923075 0.0
1.1111111111111112E-4 0.002692307692307692 0.0
1.1111111111111112E-4 0.003076923076923077 0.0
1.1111111111111112E-4 0.0034615384615384616 0.0
1.1111111111111112E-4 0.0038461538461538464 0.0
1.1111111111111112E-4 0.004230769230769231 0.0
1.1111111111111112E-4 0.004615384615384615 0.0
1.1111111111111112E-4 0.005 0.0
1.1111111111111112E-4 0.005111111111111111 0.0
1.1111111111111112E-4 0.005222222222222223 0.0
1.1111111111111112E-4 0.005333333333333333 0.0
1.1111111111111112E-4 0.0054444444444444445 0.0
1.1111111111111112E-4 0.005555555555555556 0.0
1.1111111111111112E-4 0.005666666666666667 0.0
1.1111111111111112E-4 0.0057777777777777775 0.0
1.1111111111111112E-4 0.005888888888888889 0.0
1.1111111111111112E-4 0.006 0.0
1.1111111111111112E-4 0.01711111111111111 0.0
1.1111111111111112E-4 0.028222222222222225 0.0
1.1111111111111112E-4 0.03933333333333333 0.0
1.1111111111111112E-4 0.050444444444444445 0.0
1.1111111111111112E-4 0.06155555555555556 0.0
1.1111111111111112E-4 0.07266666666666667 0.0
1.1111111111111112E-4 0.08377777777777778 0.0
1.1111111111111112E-4 0.0948888888888889 0.0
1.1111111111111112E-4 0.10600000000000001 0.0
1.1111111111111112E-4 0.10611111111111113 0.0
1.1111111111111112E-4 0.10622222222222223 0.0
1.1111111111111112E-4 0.10633333333333335 0.0
1.1111111111111112E-4 0.10644444444444445 0.0
1.1111111111111112E-4 0.10655555555555557 0.0
1.1111111111111112E-4 0.10666666666666667 0.0
1.1111111111111112E-4 0.10677777777777779 0.0
1.1111111111111112E-4 0.1068888888888889 0.0
1.1111111111111112E-4 0.10700000000000001 0.0
2.2222222222222223E-4 0.0 0.0
2.2222222222222223E-4 3.846153846153846E-4 0.0
2.2222222222222223E-4 7.692307692307692E-4 0.0
2.2222222222222223E-4 0.0011538461538461537 0.0
2.2222222222222223E-4 0.0015384615384615385 0.0
2.2222222222222223E-4 0.0019230769230769232 0.0
2.2222222222222223E-4 0.0023076923076923075 0.0
2.2222222222222223E-4 0.002692307692307692 0.0
2.2222222222222223E-4 0.003076923076923077 0.0
2.2222222222222223E-4 0.0034615384615384616 0.0
2.2222222222222223E-4 0.0038461538461538464 0.0
2.2222222222222223E-4 0.004230769230769231 0.0
2.2222222222222223E-4 0.004615384615384615 0.0
2.2222222222222223E-4 0.005 0.0
2.2222222222222223E-4 0.005111111111111111 0.0
2.2222222222222223E-4 0.005222222222222223 0.0
2.2222222222222223E-4 0.005333333333333333 0.0
2.2222222222222223E-4 0.0054444444444444445 0.0
2.2222222222222223E-4 0.005555555555555556 0.0
2.2222222222222223E-4 0.005666666666666667 0.0
2.2222222222222223E-4 0.0057777777777777775 0.0
2.2222222222222223E-4 0.005888888888888889 0.0
2.2222222222222223E-4 0.006 0.0
2.2222222222222223E-4 0.01711111111111111 0.0
2.2222222222222223E-4 0.028222222222222225 0.0
2.2222222222222223E-4 0.03933333333333333 0.0
2.2222222222222223E-4 0.050444444444444445 0.0
2.2222222222222223E-4 0.06155555555555556 0.0
2.2222222222222223E-4 0.07266666666666667 0.0
2.2222222222222223E-4 0.08377777777777778 0.0
2.2222222222222223E-4 0.0948888888888889 0.0
2.2222222222222223E-4 0.10600000000000001 0.0
2.2222222222222223E-4 0.10611111111111113 0.0
2.2222222222222223E-4 0.10622222222222223 0.0
2.2222222222222223E-4 0.10633333333333335 0.0
2.2222222222222223E-4 0.10644444444444445 0.0
2.2222222222222223E-4 0.10655555555555557 0.0
2.2222222222222223E-4 0.10666666666666667 0.0
2.2222222222222223E-4 0.10677777777777779 0.0
2.2222222222222223E-4 0.1068888888888889 0.0
2.2222222222222223E-4 0.10700000000000001 0.0
3.333333333333334E-4 0.0 0.0
3.333333333333334E-4 3.846153846153846E-4 0.0
3.333333333333334E-4 7.692307692307692E-4 0.0
3.333333333333334E-4 0.0011538461538461537 0.0
3.333333333333334E-4 0.0015384615384615385 0.0
3.333333333333334E-4 0.0019230769230769232 0.0
3.333333333333334E-4 0.0023076923076923075 0.0
3.333333333333334E-4 0.002692307692307692 0.0
3.333333333333334E-4 0.003076923076923077 0.0
3.333333333333334E-4 0.0034615384615384616 0.0
3.333333333333334E-4 0.0038461538461538464 0.0
3.333333333333334E-4 0.004230769230769231 0.0
3.333333333333334E-4 0.004615384615384615 0.0
3.333333333333334E-4 0.005 0.0
3.333333333333334E-4 0.005111111111111111 0.0
3.333333333333334E-4 0.005222222222222223 0.0
3.333333333333334E-4 0.005333333333333333 0.0
3.333333333333334E-4 0.0054444444444444445 0.0
3.333333333333334E-4 0.005555555555555556 0.0
3.333333333333334E-4 0.005666666666666667 0.0
3.333333333333334E-4 0.0057777777777777775 0.0
3.333333333333334E-4 0.005888888888888889 0.0
3.333333333333334E-4 0.006 0.0
3.333333333333334E-4 0.01711111111111111 0.0
3.333333333333334E-4 0.028222222222222225 0.0
3.333333333333334E-4 0.03933333333333333 0.0
3.333333333333334E-4 0.050444444444444445 0.0
3.333333333333334E-4 0.06155555555555556 0.0
3.333333333333334E-4 0.07266666666666667 0.0
3.333333333333334E-4 0.08377777777777778 0.0
3.333333333333334E-4 0.0948888888888889 0.0
3.333333333333334E-4 0.10600000000000001 0.0
3.333333333333334E-4 0.10611111111111113 0.0
3.333333333333334E-4 0.10622222222222223 0.0
3.333333333333334E-4 0.10633333333333335 0.0
3.333333333333334E-4 0.10644444444444445 0.0
3.333333333333334E-4 0.10655555555555557 0.0
3.333333333333334E-4 0.10666666666666667 0.0
3.333333333333334E-4 0.10677777777777779 0.0
3.333333333333334E-4 0.1068888888888889 0.0
3.333333333333334E-4 0.10700000000000001 0.0
4.4444444444444447E-4 0.0 0.0
4.4444444444444447E-4 3.846153846153846E-4 0.0
4.4444444444444447E-4 7.692307692307692E-4 0.0
4.4444444444444447E-4 0.0011538461538461537 0.0
4.4444444444444447E-4 0.0015384615384615385 0.0
4.4444444444444447E-4 0.0019230769230769232 0.0
4.4444444444444447E-4 0.0023076923076923075 0.0
4.4444444444444447E-4 0.002692307692307692 0.0
4.4444444444444447E-4 0.003076923076923077 0.0
4.4444444444444447E-4 0.0034615384615384616 0.0
4.4444444444444447E-4 0.0038461538461538464 0.0
4.4444444444444447E-4 0.004230769230769231 0.0
4.4444444444444447E-4 0.004615384615384615 0.0
4.4444444444444447E-4 0.005 0.0
4.4444444444444447E-4 0.005111111111111111 0.0
4.4444444444444447E-4 0.005222222222222223 0.0
4.4444444444444447E-4 0.005333333333333333 0.0
4.4444444444444447E-4 0.0054444444444444445 0.0
4.4444444444444447E-4 0.005555555555555556 0.0
4.4444444444444447E-4 0.005666666666666667 0.0
4.4444444444444447E-4 0.0057777777777777775 0.0
4.4444444444444447E-4 0.005888888888888889 0.0
4.4444444444444447E-4 0.006 0.0
4.4444444444444447E-4 0.01711111111111111 0.0
4.4444444444444447E-4 0.028222222222222225 0.0
4.4444444444444447E-4 0.03933333333333333 0.0
4.4444444444444447E-4 0.050444444444444445 0.0
4.4444444444444447E-4 0.06155555555555556 0.0
4.4444444444444447E-4 0.07266666666666667 0.0
4.4444444444444447E-4 0.08377777777777778 0.0
4.4444444444444447E-4 0.0948888888888889 0.0
4.4444444444444447E-4 0.10600000000000001 0.0
4.4444444444444447E-4 0.10611111111111113 0.0
4.4444444444444447E-4 0.10622222222222223 0.0
4.4444444444444447E-4 0.10633333333333335 0.0
4.4444444444444447E-4 0.10644444444444445 0.0
4.4444444444444447E-4 0.10655555555555557 0.0
4.4444444444444447E-4 0.10666666666666667 0.0
4.4444444444444447E-4 0.10677777777777779 0.0
4.4444444444444447E-4 0.1068888888888889 0.0
4.4444444444444447E-4 0.10700000000000001 0.0
5.555555555555556E-4 0.0 0.0
5.555555555555556E-4 3.846153846153846E-4 0.0
5.555555555555556E-4 7.692307692307692E-4 0.0
5.555555555555556E-4 0.0011538461538461537 0.0
5.555555555555556E-4 0.0015384615384615385 0.0
5.555555555555556E-4 0.0019230769230769232 0.0
5.555555555555556E-4 0.0023076923076923075 0.0
5.555555555555556E-4 0.002692307692307692 0.0
5.555555555555556E-4 0.003076923076923077 0.0
5.555555555555556E-4 0.0034615384615384616 0.0
5.555555555555556E-4 0.0038461538461538464 0.0
5.555555555555556E-4 0.004230769230769231 0.0
5.555555555555556E-4 0.004615384615384615 0.0
5.555555555555556E-4 0.005 0.0
5.555555555555556E-4 0.005111111111111111 0.0
5.555555555555556E-4 0.005222222222222223 0.0
5.555555555555556E-4 0.005333333333333333 0.0
5.555555555555556E-4 0.0054444444444444445 0.0
5.555555555555556E-4 0.005555555555555556 0.0
5.555555555555556E-4 0.005666666666666667 0.0
5.555555555555556E-4 0.0057777777777777775 0.0
5.555555555555556E-4 0.005888888888888889 0.0
5.555555555555556E-4 0.006 0.0
5.555555555555556E-4 0.01711111111111111 0.0
5.555555555555556E-4 0.028222222222222225 0.0
5.555555555555556E-4 0.03933333333333333 0.0
5.555555555555556E-4 0.050444444444444445 0.0
5.555555555555556E-4 0.06155555555555556 0.0
[...]
POINT_DATA 1353
SCALARS Temperatura float 1
LOOKUP_TABLE default
18.428922136386838
18.28349051653504
18.145250377010544
18.014049521027353
17.88974524023342
17.772197737092828
17.66126789226098
17.556814513131286
17.458690005173644
17.366732717417783
17.28075125908
17.200499220966382
17.125603541725276
17.055612070328376
16.98890484290831
16.92271067728982
16.857112891417238
16.792000027238842
16.72723470994384
16.66265925676597
16.598101087633044
16.53337691543294
16.468297888817048
10.120892535191418
10.284763751525315
10.290328185044697
10.287473426703457
10.288204500846225
10.288104258803209
10.287926006040406
10.284379228673119
10.4359384501423
10.437678253070468
10.43941958842647
10.441170417089886
10.442938230814034
10.444729753793723
10.44655072664804
10.448405769730805
10.45029830941057
10.45223054579596
18.428851032335213
18.28341271292169
18.14516503053068
18.013957185820775
17.88964645342837
17.77209313999174
17.66115821397478
17.55670062751083
17.458573108958664
17.36661440780885
17.280634928111148
17.200387245101087
17.125516508017935
17.05549596492554
16.988547311192196
16.922374461990717
16.856814094997073
16.791752465160013
16.727047759688713
16.662540488294997
16.59805606351734
16.533408577687744
16.468405933883986
10.118282648609629
10.282974793055015
10.2883218629348
10.285523808406928
10.286240374490703
10.286142768291791
10.285968299955396
10.282403471097405
10.43402344134917
10.435759648023268
10.437497445715628
10.439244986360697
10.441009915751586
10.44279906713976
10.444618247915592
10.446472112631339
10.44836410128746
10.450296417558771
18.42882584896042
18.28338346027626
18.145129801305348
18.013916554817946
17.889601269235133
17.772044509960434
17.66110753026622
17.556649752800837
17.458524762408572
17.36657301530745
17.28060812437857
17.2003888827107
17.125574457298498
17.0556007357399
16.988690199728428
16.922603439444835
16.857191918876232
16.79231265646486
16.72781779607848
16.663543351094543
16.59930919738522
16.534921603645117
16.47017847074248
10.114491603977983
10.281581838089904
10.286273691850905
10.283647202978456
10.284319855739914
10.284230218978445
10.28406719294542
10.280449588525256
10.432190031579381
10.433914519140838
10.435640793675946
10.4373775974913
10.439133043153811
10.440914284075335
10.442727314071469
10.444576875069169
10.446466435418037
10.448398201565846
18.428847672640934
18.283402709472934
18.14514464544746
18.01392755152079
17.88960959243073
17.77205172908258
17.66111568912444
17.55666166198771
17.458544642083627
17.36660784502757
17.280670083738475
17.200501119155593
17.125775940728644
17.05593893368639
16.989218748616015
16.923355976061114
16.858214603342084
16.793653626907567
16.729521409796217
16.66564968292789
16.601850245374106
16.537916184322114
16.4736274781958
10.109514197469597
10.280586395147147
10.284182707557356
10.281843486653239
10.282442555296969
10.282366283327875
10.282222404939562
10.27851709007263
10.430438369492675
10.43214232839111
10.433848479664189
10.435566622065185
10.437305669114824
10.439073286572082
10.440875733333463
10.44271784783417
10.44460310650153
10.446533696460737
18.428917133194744
18.283470542913392
18.145209495872276
18.01399007962057
17.889671293112773
17.772114631606758
17.661182465530334
17.556736021654807
17.458632207587108
17.3667179255588
17.280819170139452
17.200720044266212
17.126118468403256
17.056501430237457
16.99009411864964
16.924579402303394
16.859835565637173
16.79573074330727
16.732117438302993
16.668825935901964
16.60565901293471
16.54239092650535
16.47877341024819
10.103342017788778
10.279991197219122
10.282047532752356
10.280112681175051
10.280608052522808
10.280550643345228
10.280433698338268
10.276605381929485
10.428768954283914
10.430442311692888
10.432118635930713
10.43380937952919
10.435524617041366
10.437272661359835
10.439060022862106
10.440891559336874
10.442770673184768
10.444699475147603
18.429034612714265
18.283587058278616
18.145324280879393
18.01410401790353
17.889786208117744
17.77223300500931
17.661307567028164
17.556872393813684
17.45878673492577
17.36690199240392
17.281053008395684
17.201041142211903
17.126595642192257
17.05727099401343
16.991279705816627
16.926222457987155
16.861994862995505
16.798480192617774
16.735542437455873
16.67301677246565
16.610699053744302
16.54833920338349
16.485646008167343
10.095963220877769
10.27980026494228
10.279866359072825
10.278454958817074
10.278815894160996
10.278782989987093
10.278700881324715
10.274713754646157
10.427182681984709
10.428813287815354
10.430448345198888
10.432101789151965
10.433785208437405
10.435507537451091
10.437275337364024
10.439093265222027
10.440964481091463
10.442890918306277
18.429200343430857
18.28375232696318
18.14548892022693
18.014269220283005
17.889954141285767
17.77240659237905
17.66149063905927
17.557070244837075
17.459007344295486
17.367158498036126
17.281368683756455
17.201459050318007
17.127197688094366
17.05822478207731
16.992733911908253
16.92822586195324
16.86461790493024
16.80181523221737
16.73970296840267
16.678133282353144
16.616904783300267
16.555741020230364
16.494285672009678
10.087362151417167
10.280019012029117
10.277636917363601
10.276870650645675
10.27706559231098
10.277063022205784
10.2770238134059
10.27284136200107
10.42568092279739
10.427253232943736
10.428832964501245
10.430437752335846
10.432080857573403
10.433771390920716
10.435515412568328
10.437316971875761
10.439178726263302
10.441102289805972
18.429414457148997
18.283966381026925
18.145703317639576
18.01448551567351
17.89017486404651
17.772635095319846
17.66173127104587
17.557328958504222
17.459293024835418
17.36748565948375
17.281762871376326
17.201967551569293
17.127912258257854
17.059335506491692
16.99440841991231
16.930519631615603
16.86761270675699
16.805622106705222
16.744466014752668
16.684032925918775
16.62415468085347
16.564543042986926
16.504745804524635
10.07751870007089
10.280654422830052
10.27535642818417
10.275360260158273
10.275356621182304
10.275390445357885
10.27540241472322
10.270987185580717
10.42426565131855
10.425758230284583
10.427264719699052
10.428808115513288
10.430402605418752
10.432055897866446
10.43377258141284
10.43555553103241
10.437406584272717
10.439326875468785
18.42967701260401
18.284229210935283
18.145967354670802
18.014752707189157
17.890448116312466
17.7729181771953
17.66202900346207
17.557647850751003
17.459642662442402
17.36788151916966
17.282231948198245
17.20255974048236
17.128725226172346
17.06057252062401
16.996248711471953
16.933023363704006
16.870870064774834
16.809758850283508
16.749652417066336
16.690498015412903
16.632207673868322
16.574602165596318
16.517097180653998
10.066407113556467
10.281715378024128
10.273021512154129
10.273924487703885
10.273688411446344
10.273764968290703
10.273836683055409
10.26914997010227
10.422939685472603
10.424319482410667
10.42572935000295
10.427199575473857
10.428738843184226
10.4303509791394
10.43203793633423
10.433800842920927
10.435640425965204
10.437557201417288
18.429988012338992
18.28454076727188
18.146280886543774
18.01507057101234
17.890773607513925
17.773255466654028
17.662383335595315
17.558026185458896
17.46005507081711
17.368344009853146
17.282772111157325
17.203228285604464
17.129621456835345
17.06190312294851
16.99819597656723
16.935649032151364
16.874267553666748
16.814060319999435
16.75504106346132
16.69723040261724
16.640658717064188
16.585371068187396
10.273759147369544
10.273759147369544
10.273759147369544
10.273759147369544
10.273759147369544
10.273759147369544
10.273759147369544
10.273759147369544
10.273759147369544
10.273759147369544
10.422906573113568
10.42420379060292
10.425594464861016
10.4270756268116
10.428645188703783
10.430301695372375
10.432044188574556
10.43387212638403
10.4357853349134
18.575513625261365
18.43059795003104
18.293878149618653
18.16523210922364
18.044549321855374
17.931730819386335
17.82668916988585
17.729348515042023
17.639644595454367
17.55752467055837
17.48294715301734
17.415880592735213
17.35630121372082
17.304187129679015
17.256812358926144
17.210737633013395
17.165954660995116
17.12245452157883
17.080227273588452
17.039261432605585
16.999543193242264
16.961055100301994
10.273759147369544
10.273759147369544
10.273759147369544
10.273759147369544
10.273759147369544
10.273759147369544
10.273759147369544
10.273759147369544
10.273759147369544
10.273759147369544
10.2642168180744
10.266088234313862
10.267972014049008
10.269869489186842
10.271781738711448
10.273709656234109
10.275653987033825
10.277615350178271
10.279594251841157
18.645693809593936
18.50069423454421
18.363690900600318
18.23455299747724
18.113155533987364
17.999379167084896
17.893110003016314
17.794239376603716
17.702663621408444
17.618283854447306
17.54100582271003
17.470739909192297
17.407401514329376
17.350912323093983
17.2988487556247
17.248032499688513
17.19845383397809
17.150103464408662
17.102972626088913
17.057053221560118
17.01233802776598
16.968821051512435
10.273759147369544
10.273759147369544
10.273759147369544
10.273759147369544
10.273759147369544
10.273759147369544
10.273759147369544
10.273759147369544
10.273759147369544
10.273759147369544
10.267777998051969
10.269343694046812
10.27096534907688
10.272642910631145
10.274376414292236
10.276165965425706
10.278011729112752
10.279913924137094
10.281872819380192
18.664917073452525
18.5199270511348
18.382945447529845
18.253844442109326
18.13250406992244
18.01881213806911
17.912664164612373
17.8139633386777
17.722620498846055
17.638554124136665
17.56169032558731
17.491962812767817
17.4293127773612
17.373688555649824
17.322589319133275
17.272758160134
17.224186990353143
17.17686788684173
17.130793063284024
17.085954831518155
17.04234554455191
16.99995749963528
10.273759147369544
10.273759147369544
10.273759147369544
10.273759147369544
10.273759147369544
10.273759147369544
10.273759147369544
10.273759147369544
10.273759147369544
10.273759147369544
10.267734141453094
10.269383092980712
10.271075936422903
10.272813069263405
10.274594872858726
10.276421717499066
10.278293965241314
10.28021197163995
10.282176086818849
18.672132345464618
18.52714170978749
18.3901550064531
18.26104355027558
18.139685911351084
18.02596778920383
17.91978188770351
17.82102779075232
17.729611839119993
17.64544700950812
17.568452798578896
17.498555118360628
17.43568621818636
17.37978467019201
17.328375184549447
17.278227848561666
17.229333815255476
17.181684465880366
17.13527141556971
17.090086521688228
17.04612189722004
17.003369934961157
10.273759147369544
10.273759147369544
10.273759147369544
10.273759147369544
10.273759147369544
10.273759147369544
10.273759147369544
10.273759147369544
10.273759147369544
10.273759147369544
10.267732625020715
10.269359772375461
10.271034026447872
10.272755643132527
10.274524893583068
10.276342062892486
10.278207449378746
10.280121364173073
10.282084130991622
18.674383656436014
18.52939265382396
18.39240399760597
18.263289232697662
18.14192732293092
18.028204541854667
17.922014372506812
17.82325741611117
17.73184130958539
17.647680651590235
17.57069693643486
17.5008184941821
17.43798043293733
17.38212457334739
17.330769865674526
17.28067934605556
17.231844450051994
17.184256826942608
17.13790833643038
17.092791044667763
17.04889721896306
17.006219319611066
10.273759147369544
10.273759147369544
10.273759147369544
10.273759147369544
10.273759147369544
10.273759147369544
10.273759147369544
10.273759147369544
10.273759147369544
10.273759147369544
10.267731414791951
10.26936427583575
10.271043386648683
10.272769046632769
10.274541561107524
10.27636124173915
10.278228406806571
10.280143381386035
10.282106497486582
18.675136097378086
18.530145236188343
18.393156675343683
18.264041902266378
18.14267978130978
18.028956438569466
17.92276515274457
17.82400625190124
17.732587016006466
17.648421585141648
17.57143087342091
17.50154248891569
17.438690660567662
17.382816174798446
17.3314399599228
17.28132739700703
17.23246982275
17.18485879076459
17.138486070622875
17.093343647145243
17.04942372011597
17.00671870487127
10.273759147369544
10.273759147369544
10.273759147369544
10.273759147369544
10.273759147369544
10.273759147369544
10.273759147369544
10.273759147369544
10.273759147369544
10.273759147369544
10.267732215523747
10.269363551824036
10.27104137061753
10.272765957910527
10.274537608433313
10.276356625580298
10.278223321399267
10.28013801660627
10.282101040616963
18.675306225751694
18.530315289471705
18.393326438581653
18.26421117698319
18.14284839805185
18.02912427192747
17.92293214007022
17.82417241702046
17.732752499307065
17.64858668144315
17.571596078904715
17.501708557863612
17.438858671117217
17.38298759879842
17.3316157438174
17.281507757635787
17.23265501713159
17.185049115341297
17.1386818597728
17.09354527065157
17.0496315790079
17.00693322438136
10.273759147369544
10.273759147369544
10.273759147369544
10.273759147369544
10.273759147369544
10.273759147369544
10.273759147369544
10.273759147369544
10.273759147369544
10.273759147369544
10.267731808304166
10.26936364222902
10.27104188124377
10.272766816368236
10.274538746316761
10.276357977606327
10.278224824641917
10.280139609790934
10.28210266345128
18.675136097377937
18.530145236188183
18.393156675343512
18.264041902266193
18.142679781309564
18.028956438569203
17.922765152744272
17.824006251900922
17.73258701600613
17.64842158514128
17.571430873420486
17.501542488915213
17.43869066056713
17.382816174797856
17.331439959922157
17.281327397006333
17.232469822749263
17.184858790763805
17.138486070622047
17.09334364714439
17.049423720115108
17.00671870487039
10.273759147369544
10.273759147369544
10.273759147369544
10.273759147369544
10.273759147369544
10.273759147369544
10.273759147369544
10.273759147369544
10.273759147369544
10.273759147369544
10.267732215522978
10.269363551823265
10.271041370616757
10.272765957909757
10.27453760843254
10.276356625579519
10.278223321398482
10.280138016605482
10.282101040616178
18.674383656436227
18.529392653824182
18.392403997606195
18.263289232697897
18.14192732293117
18.02820454185494
17.92201437250709
17.823257416111442
17.731841309585658
17.64768065159051
17.57069693643515
17.500818494182415
17.437980432937664
17.38212457334776
17.330769865674934
17.280679346055997
17.231844450052463
17.184256826943116
17.137908336430915
17.09279104466831
17.048897218963603
17.006219319611603
10.273759147369544
10.273759147369544
10.273759147369544
10.273759147369544
10.273759147369544
10.273759147369544
10.273759147369544
10.273759147369544
10.273759147369544
10.273759147369544
10.267731414789298
10.269364275833082
10.271043386646001
10.272769046630069
10.274541561104805
10.27636124173642
10.278228406803837
10.280143381383295
10.282106497483843
18.672132345464828
18.527141709787703
18.390155006453334
18.261043550275826
18.13968591135133
18.025967789204053
17.919781887703735
17.82102779075254
17.729611839120203
17.6454470095083
17.568452798579024
17.498555118360695
17.43568621818637
17.37978467019196
17.328375184549344
17.278227848561528
17.229333815255316
17.18168446588019
17.135271415569527
17.090086521688033
17.046121897219848
17.00336993496097
10.273759147369544
10.273759147369544
10.273759147369544
10.273759147369544
10.273759147369544
10.273759147369544
10.273759147369544
10.273759147369544
10.273759147369544
10.273759147369544
10.267732625020612
10.269359772375362
10.271034026447776
10.272755643132436
10.274524893582983
10.27634206289241
10.278207449378673
10.280121364172999
10.28208413099155
18.664917073453868
18.51992705113614
18.382945447531174
18.253844442110648
18.132504069923755
18.018812138070423
17.91266416461368
17.813963338678995
17.72262049884736
17.638554124137983
17.56169032558864
17.491962812769167
17.429312777362565
17.3736885556512
17.322589319134654
17.272758160135382
17.224186990354518
17.176867886843077
17.130793063285356
17.085954831519473
17.042345544553203
16.99995749963655
10.273759147369544
10.273759147369544
10.273759147369544
10.273759147369544
10.273759147369544
10.273759147369544
10.273759147369544
10.273759147369544
10.273759147369544
10.273759147369544
10.267734141452747
10.269383092980362
10.271075936422552
10.272813069263053
10.274594872858373
10.276421717498708
10.278293965240955
10.280211971639593
10.282176086818492
18.645693809595926
18.500694234546202
18.363690900602332
18.234552997479277
18.113155533989424
17.99937916708698
17.89311000301842
17.794239376605844
17.702663621410586
17.618283854449462
17.541005822712208
17.4707399091945
17.407401514331614
17.35091232309626
17.298848755627027
17.248032499690886
17.198453833980505
17.15010346441113
17.102972626091418
17.05705322156265
17.012338027768536
16.968821051515
10.273759147369544
10.273759147369544
10.273759147369544
10.273759147369544
10.273759147369544
10.273759147369544
10.273759147369544
10.273759147369544
10.273759147369544
10.273759147369544
10.267777998050223
10.269343694045054
10.270965349075112
10.27264291062937
10.27437641429046
10.27616596542393
10.278011729110979
10.27991392413533
10.281872819378428
18.575513625261134
18.43059795003082
18.293878149618436
18.165232109223425
18.044549321855154
17.93173081938611
17.826689169885615
17.72934851504178
17.639644595454122
17.55752467055813
17.48294715301711
17.415880592735
17.35630121372061
17.30418712967881
17.256812358925934
17.210737633013178
17.165954660994892
17.122454521578586
17.080227273588207
17.039261432605336
16.999543193242
16.961055100301717
10.273759147369544
10.273759147369544
10.273759147369544
10.273759147369544
10.273759147369544
10.273759147369544
10.273759147369544
10.273759147369544
10.273759147369544
10.273759147369544
10.264216818074697
10.26608823431416
10.267972014049308
10.269869489187144
10.271781738711747
10.273709656234397
10.275653987034103
10.277615350178536
10.279594251841417
18.429988012338406
18.28454076727129
18.14628088654317
18.01507057101173
17.8907736075133
17.77325546665341
17.662383335594722
17.558026185458317
17.460055070816555
17.368344009852613
17.282772111156817
17.203228285603974
17.129621456834865
17.06190312294804
16.998195976566773
16.935649032150927
16.874267553666332
16.814060319999054
16.75504106346095
16.69723040261689
16.64065871706385
16.585371068187072
10.273759147369544
10.273759147369544
10.273759147369544
10.273759147369544
10.273759147369544
10.273759147369544
10.273759147369544
10.273759147369544
10.273759147369544
10.273759147369544
10.422906573112206
10.42420379060157
10.425594464859676
10.427075626810266
10.428645188702458
10.430301695371057
10.43204418857325
10.433872126382727
10.435785334912095
18.42967701260343
18.284229210934697
18.1459673546702
18.01475270718854
17.890448116311845
17.77291817719468
17.662029003461488
17.557647850750445
17.45964266244186
17.367881519169142
17.28223194819773
17.202559740481878
17.128725226171905
17.060572520623555
16.99624871147151
16.933023363703576
16.870870064774415
16.809758850283117
16.749652417065963
16.690498015412544
16.632207673867967
16.574602165595987
16.51709718065368
10.066407113557347
10.281715378027807
10.27302151215537
10.273924487704985
10.273688411451458
10.273764968291779
10.27383668305515
10.269149970102557
10.422939685471231
10.42431948240929
10.425729350001584
10.427199575472503
10.428738843182884
10.430350979138066
10.432037936332897
10.433800842919599
10.43564042596389
10.43755720141597
18.429414457148432
18.28396638102635
18.145703317638986
18.014485515672884
17.8901748640459
17.77263509531922
17.661731271045287
17.557328958503685
17.459293024834892
17.367485659483247
17.28176287137581
17.201967551568828
17.12791225825742
17.059335506491266
16.994408419911892
16.93051963161519
16.867612706756574
16.805622106704824
16.744466014752284
16.684032925918398
16.624154680853106
16.564543042986582
16.504745804524298
10.077518700071789
10.280654422833742
10.275356428185397
10.275360260159383
10.275356621187441
10.275390445358957
10.275402414722967
10.270987185580989
10.424265651317166
10.425758230283204
10.42726471969768
10.428808115511925
10.430402605417397
10.432055897865101
10.4337725814115
10.435555531031072
10.437406584271379
10.439326875467449