# vtk DataFile Version 2.0
Niestacjonarne zagadnienie cieplne - ogrzewanie wody w garnku stalowym
ASCII
DATASET UNSTRUCTURED_GRID
POINTS 1353 float
0.0 0.0 0.0
0.0 3.846153846153846E-4 0.0
0.0 7.692307692307692E-4 0.0
0.0 0.0011538461538461537 0.0
0.0 0.0015384615384615385 0.0
0.0 0.0019230769230769232 0.0
0.0 0.0023076923076923075 0.0
0.0 0.002692307692307692 0.0
0.0 0.003076923076923077 0.0
0.0 0.0034615384615384616 0.0
0.0 0.0038461538461538464 0.0
0.0 0.004230769230769231 0.0
0.0 0.004615384615384615 0.0
0.0 0.005 0.0
0.0 0.005111111111111111 0.0
0.0 0.005222222222222223 0.0
0.0 0.005333333333333333 0.0
0.0 0.0054444444444444445 0.0
0.0 0.005555555555555556 0.0
0.0 0.005666666666666667 0.0
0.0 0.0057777777777777775 0.0
0.0 0.005888888888888889 0.0
0.0 0.006 0.0
0.0 0.01711111111111111 0.0
0.0 0.028222222222222225 0.0
0.0 0.03933333333333333 0.0
0.0 0.050444444444444445 0.0
0.0 0.06155555555555556 0.0
0.0 0.07266666666666667 0.0
0.0 0.08377777777777778 0.0
0.0 0.0948888888888889 0.0
0.0 0.10600000000000001 0.0
0.0 0.10611111111111113 0.0
0.0 0.10622222222222223 0.0
0.0 0.10633333333333335 0.0
0.0 0.10644444444444445 0.0
0.0 0.10655555555555557 0.0
0.0 0.10666666666666667 0.0
0.0 0.10677777777777779 0.0
0.0 0.1068888888888889 0.0
0.0 0.10700000000000001 0.0
1.1111111111111112E-4 0.0 0.0
1.1111111111111112E-4 3.846153846153846E-4 0.0
1.1111111111111112E-4 7.692307692307692E-4 0.0
1.1111111111111112E-4 0.0011538461538461537 0.0
1.1111111111111112E-4 0.0015384615384615385 0.0
1.1111111111111112E-4 0.0019230769230769232 0.0
1.1111111111111112E-4 0.0023076923076923075 0.0
1.1111111111111112E-4 0.002692307692307692 0.0
1.1111111111111112E-4 0.003076923076923077 0.0
1.1111111111111112E-4 0.0034615384615384616 0.0
1.1111111111111112E-4 0.0038461538461538464 0.0
1.1111111111111112E-4 0.004230769230769231 0.0
1.1111111111111112E-4 0.004615384615384615 0.0
1.1111111111111112E-4 0.005 0.0
1.1111111111111112E-4 0.005111111111111111 0.0
1.1111111111111112E-4 0.005222222222222223 0.0
1.1111111111111112E-4 0.005333333333333333 0.0
1.1111111111111112E-4 0.0054444444444444445 0.0
1.1111111111111112E-4 0.005555555555555556 0.0
1.1111111111111112E-4 0.005666666666666667 0.0
1.1111111111111112E-4 0.0057777777777777775 0.0
1.1111111111111112E-4 0.005888888888888889 0.0
1.1111111111111112E-4 0.006 0.0
1.1111111111111112E-4 0.01711111111111111 0.0
1.1111111111111112E-4 0.028222222222222225 0.0
1.1111111111111112E-4 0.03933333333333333 0.0
1.1111111111111112E-4 0.050444444444444445 0.0
1.1111111111111112E-4 0.06155555555555556 0.0
1.1111111111111112E-4 0.07266666666666667 0.0
1.1111111111111112E-4 0.08377777777777778 0.0
1.1111111111111112E-4 0.0948888888888889 0.0
1.1111111111111112E-4 0.10600000000000001 0.0
1.1111111111111112E-4 0.10611111111111113 0.0
1.1111111111111112E-4 0.10622222222222223 0.0
1.1111111111111112E-4 0.10633333333333335 0.0
1.1111111111111112E-4 0.10644444444444445 0.0
1.1111111111111112E-4 0.10655555555555557 0.0
1.1111111111111112E-4 0.10666666666666667 0.0
1.1111111111111112E-4 0.10677777777777779 0.0
1.1111111111111112E-4 0.1068888888888889 0.0
1.1111111111111112E-4 0.10700000000000001 0.0
2.2222222222222223E-4 0.0 0.0
2.2222222222222223E-4 3.846153846153846E-4 0.0
2.2222222222222223E-4 7.692307692307692E-4 0.0
2.2222222222222223E-4 0.0011538461538461537 0.0
2.2222222222222223E-4 0.0015384615384615385 0.0
2.2222222222222223E-4 0.0019230769230769232 0.0
2.2222222222222223E-4 0.0023076923076923075 0.0
2.2222222222222223E-4 0.002692307692307692 0.0
2.2222222222222223E-4 0.003076923076923077 0.0
2.2222222222222223E-4 0.0034615384615384616 0.0
2.2222222222222223E-4 0.0038461538461538464 0.0
2.2222222222222223E-4 0.004230769230769231 0.0
2.2222222222222223E-4 0.004615384615384615 0.0
2.2222222222222223E-4 0.005 0.0
2.2222222222222223E-4 0.005111111111111111 0.0
2.2222222222222223E-4 0.005222222222222223 0.0
2.2222222222222223E-4 0.005333333333333333 0.0
2.2222222222222223E-4 0.0054444444444444445 0.0
2.2222222222222223E-4 0.005555555555555556 0.0
2.2222222222222223E-4 0.005666666666666667 0.0
2.2222222222222223E-4 0.0057777777777777775 0.0
2.2222222222222223E-4 0.005888888888888889 0.0
2.2222222222222223E-4 0.006 0.0
2.2222222222222223E-4 0.01711111111111111 0.0
2.2222222222222223E-4 0.028222222222222225 0.0
2.2222222222222223E-4 0.03933333333333333 0.0
2.2222222222222223E-4 0.050444444444444445 0.0
2.2222222222222223E-4 0.06155555555555556 0.0
2.2222222222222223E-4 0.07266666666666667 0.0
2.2222222222222223E-4 0.08377777777777778 0.0
2.2222222222222223E-4 0.0948888888888889 0.0
2.2222222222222223E-4 0.10600000000000001 0.0
2.2222222222222223E-4 0.10611111111111113 0.0
2.2222222222222223E-4 0.10622222222222223 0.0
2.2222222222222223E-4 0.10633333333333335 0.0
2.2222222222222223E-4 0.10644444444444445 0.0
2.2222222222222223E-4 0.10655555555555557 0.0
2.2222222222222223E-4 0.10666666666666667 0.0
2.2222222222222223E-4 0.10677777777777779 0.0
2.2222222222222223E-4 0.1068888888888889 0.0
2.2222222222222223E-4 0.10700000000000001 0.0
3.333333333333334E-4 0.0 0.0
3.333333333333334E-4 3.846153846153846E-4 0.0
3.333333333333334E-4 7.692307692307692E-4 0.0
3.333333333333334E-4 0.0011538461538461537 0.0
3.333333333333334E-4 0.0015384615384615385 0.0
3.333333333333334E-4 0.0019230769230769232 0.0
3.333333333333334E-4 0.0023076923076923075 0.0
3.333333333333334E-4 0.002692307692307692 0.0
3.333333333333334E-4 0.003076923076923077 0.0
3.333333333333334E-4 0.0034615384615384616 0.0
3.333333333333334E-4 0.0038461538461538464 0.0
3.333333333333334E-4 0.004230769230769231 0.0
3.333333333333334E-4 0.004615384615384615 0.0
3.333333333333334E-4 0.005 0.0
3.333333333333334E-4 0.005111111111111111 0.0
3.333333333333334E-4 0.005222222222222223 0.0
3.333333333333334E-4 0.005333333333333333 0.0
3.333333333333334E-4 0.0054444444444444445 0.0
3.333333333333334E-4 0.005555555555555556 0.0
3.333333333333334E-4 0.005666666666666667 0.0
3.333333333333334E-4 0.0057777777777777775 0.0
3.333333333333334E-4 0.005888888888888889 0.0
3.333333333333334E-4 0.006 0.0
3.333333333333334E-4 0.01711111111111111 0.0
3.333333333333334E-4 0.028222222222222225 0.0
3.333333333333334E-4 0.03933333333333333 0.0
3.333333333333334E-4 0.050444444444444445 0.0
3.333333333333334E-4 0.06155555555555556 0.0
3.333333333333334E-4 0.07266666666666667 0.0
3.333333333333334E-4 0.08377777777777778 0.0
3.333333333333334E-4 0.0948888888888889 0.0
3.333333333333334E-4 0.10600000000000001 0.0
3.333333333333334E-4 0.10611111111111113 0.0
3.333333333333334E-4 0.10622222222222223 0.0
3.333333333333334E-4 0.10633333333333335 0.0
3.333333333333334E-4 0.10644444444444445 0.0
3.333333333333334E-4 0.10655555555555557 0.0
3.333333333333334E-4 0.10666666666666667 0.0
3.333333333333334E-4 0.10677777777777779 0.0
3.333333333333334E-4 0.1068888888888889 0.0
3.333333333333334E-4 0.10700000000000001 0.0
4.4444444444444447E-4 0.0 0.0
4.4444444444444447E-4 3.846153846153846E-4 0.0
4.4444444444444447E-4 7.692307692307692E-4 0.0
4.4444444444444447E-4 0.0011538461538461537 0.0
4.4444444444444447E-4 0.0015384615384615385 0.0
4.4444444444444447E-4 0.0019230769230769232 0.0
4.4444444444444447E-4 0.0023076923076923075 0.0
4.4444444444444447E-4 0.002692307692307692 0.0
4.4444444444444447E-4 0.003076923076923077 0.0
4.4444444444444447E-4 0.0034615384615384616 0.0
4.4444444444444447E-4 0.0038461538461538464 0.0
4.4444444444444447E-4 0.004230769230769231 0.0
4.4444444444444447E-4 0.004615384615384615 0.0
4.4444444444444447E-4 0.005 0.0
4.4444444444444447E-4 0.005111111111111111 0.0
4.4444444444444447E-4 0.005222222222222223 0.0
4.4444444444444447E-4 0.005333333333333333 0.0
4.4444444444444447E-4 0.0054444444444444445 0.0
4.4444444444444447E-4 0.005555555555555556 0.0
4.4444444444444447E-4 0.005666666666666667 0.0
4.4444444444444447E-4 0.0057777777777777775 0.0
4.4444444444444447E-4 0.005888888888888889 0.0
4.4444444444444447E-4 0.006 0.0
4.4444444444444447E-4 0.01711111111111111 0.0
4.4444444444444447E-4 0.028222222222222225 0.0
4.4444444444444447E-4 0.03933333333333333 0.0
4.4444444444444447E-4 0.050444444444444445 0.0
4.4444444444444447E-4 0.06155555555555556 0.0
4.4444444444444447E-4 0.07266666666666667 0.0
4.4444444444444447E-4 0.08377777777777778 0.0
4.4444444444444447E-4 0.0948888888888889 0.0
4.4444444444444447E-4 0.10600000000000001 0.0
4.4444444444444447E-4 0.10611111111111113 0.0
4.4444444444444447E-4 0.10622222222222223 0.0
4.4444444444444447E-4 0.10633333333333335 0.0
4.4444444444444447E-4 0.10644444444444445 0.0
4.4444444444444447E-4 0.10655555555555557 0.0
4.4444444444444447E-4 0.10666666666666667 0.0
4.4444444444444447E-4 0.10677777777777779 0.0
4.4444444444444447E-4 0.1068888888888889 0.0
4.4444444444444447E-4 0.10700000000000001 0.0
5.555555555555556E-4 0.0 0.0
5.555555555555556E-4 3.846153846153846E-4 0.0
5.555555555555556E-4 7.692307692307692E-4 0.0
5.555555555555556E-4 0.0011538461538461537 0.0
5.555555555555556E-4 0.0015384615384615385 0.0
5.555555555555556E-4 0.0019230769230769232 0.0
5.555555555555556E-4 0.0023076923076923075 0.0
5.555555555555556E-4 0.002692307692307692 0.0
5.555555555555556E-4 0.003076923076923077 0.0
5.555555555555556E-4 0.0034615384615384616 0.0
5.555555555555556E-4 0.0038461538461538464 0.0
5.555555555555556E-4 0.004230769230769231 0.0
5.555555555555556E-4 0.004615384615384615 0.0
5.555555555555556E-4 0.005 0.0
5.555555555555556E-4 0.005111111111111111 0.0
5.555555555555556E-4 0.005222222222222223 0.0
5.555555555555556E-4 0.005333333333333333 0.0
5.555555555555556E-4 0.0054444444444444445 0.0
5.555555555555556E-4 0.005555555555555556 0.0
5.555555555555556E-4 0.005666666666666667 0.0
5.555555555555556E-4 0.0057777777777777775 0.0
5.555555555555556E-4 0.005888888888888889 0.0
5.555555555555556E-4 0.006 0.0
5.555555555555556E-4 0.01711111111111111 0.0
5.555555555555556E-4 0.028222222222222225 0.0
5.555555555555556E-4 0.03933333333333333 0.0
5.555555555555556E-4 0.050444444444444445 0.0
5.555555555555556E-4 0.06155555555555556 0.0
[...]
POINT_DATA 1353
SCALARS Temperatura float 1
LOOKUP_TABLE default
144.27854797922197
144.1544657858869
144.02849558990542
143.90059359368155
143.77070320490424
143.63874527643466
143.50460952468399
143.36813868193846
143.2291005062526
143.08712328839562
142.94161100601985
142.79135402934844
142.63467538631167
142.46219434864892
142.27517924313275
142.1010063170646
141.93029917196571
141.76136851795394
141.59310659766817
141.42472630287878
141.25557184662608
141.08505472283682
140.91262499093963
121.61540974392598
121.42106623233423
121.45422304420624
121.44599273177334
121.44832218181894
121.44649684192177
121.45219841821013
121.42163073489408
119.05476481801571
119.03371281131159
119.01290994073884
118.99230447866358
118.97184779264977
118.95149641586511
118.93121354924524
118.91097001525621
118.89074477501906
118.87052515695282
144.28603692052627
144.16194959569702
144.03597346706397
143.90806620124954
143.778171316555
143.64621004650127
143.51207260667292
143.3756032075997
143.23657029303652
143.09461307278733
142.94911568833896
142.79901750970922
142.64210007408604
142.47242062913162
142.29738609822118
142.12442425593662
141.9544822290064
141.78600440277958
141.61808241904652
141.4499867133343
141.28108804491563
141.11080946915112
140.9386056466823
121.6343647923114
121.44231836149773
121.47487818632017
121.46680474061299
121.46908874673325
121.46729255159488
121.47291965547087
121.44263184643425
119.07490243188826
119.05387273976615
119.033091909705
119.01250689635957
118.99206800371036
118.97173101093355
118.95145865673355
118.93122152663717
118.91099848736962
118.89077684281503
144.2937097629652
144.1696205299
144.04364179068745
143.91573387540137
143.78584096102327
143.65388528391944
143.51975884573972
143.38330908677978
143.24431140785543
143.10241670998434
142.95703845178127
142.8071780093071
142.65066359901024
142.4841827279569
142.31449260327702
142.1453838471001
141.97735971165778
141.81020677447046
141.6433249642652
141.47613024263788
141.30805845426303
141.13856177691116
140.96710544430928
121.64966512272385
121.46459541267993
121.49534847355928
121.48774976789788
121.48989621270749
121.48818836500465
121.49358943759857
121.46415443866515
119.09480092107736
119.07384828623275
119.05314344712994
119.03262928577817
119.01225288151385
118.99196779779896
118.97173548079763
118.95152590916508
118.93131775228164
118.9110982944499
144.3015675022414
144.17747844472328
144.05150040818612
143.9235964032551
143.7937118431318
143.6617705814736
143.5276674878828
143.39125541170108
143.2523206184338
143.1105339418831
142.9653572912087
142.81585882897608
142.66022915061714
142.49664935042637
142.33075996521458
142.1649291647766
141.99943195389005
141.83421026606834
141.66895344828097
141.50322064758717
141.33652245226108
141.16834349444056
140.998156421865
121.66129851507061
121.48790219702691
121.51563223412509
121.50882840013243
121.51074435344792
121.50918454538339
121.51420720694847
121.48619991160542
119.11445681121138
119.09364069383098
119.07307002180082
119.05268039064987
119.0324133432668
119.01221889252732
118.99205664290218
118.9718959007485
118.95171527791588
118.93150219209994
144.30961058120275
144.18552322893214
144.05954903658215
143.9316534246494
143.80178347618985
143.66986522984615
143.535797412466
143.39944023965924
143.260594280432
143.1189587540461
142.97405388656685
142.82505668746185
142.67058506842736
142.50964071830276
142.3469262553137
142.1840702904612
142.0212039242395
141.85828688396091
141.6951096999614
141.53133334183434
141.3665278156462
141.20019908843182
141.03181175175789
121.66924505639788
121.51224661005713
121.53572670060022
121.53004159926975
121.53163278426717
121.5302815221765
121.5347720264926
121.50877057980719
119.13386415447891
119.11325268720887
119.09288194609717
119.07267612289559
119.0525687232299
119.03250525949453
119.01244358024472
118.99235285269575
118.97221220134671
118.95200957284355
144.3178390996001
144.19375468891104
144.06778728260772
143.93990443225704
143.81005518429998
143.67816825375394
143.54414708927507
143.40786089864577
143.26912770565787
143.12768161418037
142.9831109072052
142.83473638203162
142.6815696844528
142.52308119584308
142.3632551411168
142.20321947445026
142.04303170341572
141.88264691723012
141.72190242178127
141.56051894025592
141.39810658153982
141.2341732578462
141.06814621840778
121.67347699481147
121.53763967771424
121.5556279949261
121.55139070810367
121.55256095859168
121.55147989832456
121.55528255549432
121.53186975958623
119.15301421199591
119.13268976554144
119.112596654813
119.0926419553969
119.07274863276547
119.05285783528453
119.03292703373718
119.01292679401254
118.9928379213621
118.97264959082979
144.32625291332087
144.20217250872417
144.07621464145936
143.94834877637203
143.81852611186181
143.68667843400004
143.55271460910097
143.41651412832758
143.27791503683258
143.13669108118773
142.99250780992094
142.84484870098143
142.69306234214164
142.53691494071748
142.37983542714517
142.2225481063171
142.0650802309208
141.90739308737008
141.74936267891977
141.5907631234519
141.43124116454916
141.2702912336766
141.10725753061053
121.67395836246425
121.56409566704757
121.575331094964
121.57287746125134
121.57352816173959
121.5727804623391
121.57573700929244
121.55550191382648
119.17189492491755
119.15196303582431
119.13224330808619
119.11261717840624
119.09299579987298
119.07331887258465
119.05354742732227
119.03365625696053
119.01362964858896
118.99345898491993
144.33485168550965
144.21077623908562
144.0848304925756
143.95698567055817
143.82719523599698
143.69539433074877
143.56149773983236
143.42539616387182
143.28694947071895
143.1459743123851
143.00222044740454
142.85534034463893
142.70496845897574
142.5510858541103
142.39667484899945
142.24209915636263
142.08738417529563
141.932514540858
141.7774173517562
141.6219403777728
141.46581080870774
141.30852033999395
141.14926932438905
121.67064413788434
121.59163232321173
121.59482976602082
121.594504006382
121.59453350001581
121.5941842083169
121.59613309260747
121.57967289340883
119.19049002922472
119.17109610588415
119.15187212171979
119.13266244536175
119.11336927024087
119.09394293258828
119.07435473490757
119.0545876066169
119.03463149894343
119.0144811061517
144.3436349158768
144.2195652974452
144.09363409722013
143.965814197616
143.83606138047045
143.7043143117379
143.57049398618315
143.43450283863578
143.29622353097207
143.15551738249772
143.01222210023644
142.8661582039962
142.7172089636783
142.56553380570892
142.4137361138044
142.26184070947343
142.10988896945676
141.9579039411741
141.80588124091122
141.65377518230434
141.50146684051194
141.34868358700746
141.19433762124035
121.66347847379375
121.62027136004308
121.61411642306096
121.61627294529613
121.61557588106156
121.61569237049383
121.61646788410049
121.60439035748853
119.20877750846626
119.19013928012399
119.17158151035368
119.15286694510475
119.133946228141
119.11479652224655
119.09540733070926
119.07577361802025
119.05589298723268
119.03576439423843
144.35260195973316
144.22853897228808
144.10262459840266
143.9748333158598
143.84512323080136
143.71343658358344
143.5797006519299
143.44382970626134
143.30572933114144
143.16530568195708
143.02248473732703
142.87725078655896
142.72971379381858
142.58019545926288
142.43095685503323
142.2816975638586
142.13248334650257
141.98338368687553
141.83447359386165
141.6858366404152
141.53757000410042
141.38979319557032
125.71090779191628
125.71090779191628
125.71090779191628
125.71090779191628
125.71090779191628
125.71090779191628
125.71090779191628
125.71090779191628
125.71090779191628
125.71090779191628
119.20933088512008
119.19152767244447
119.17334949961099
119.15481965022316
119.13595536116259
119.11676943494939
119.0972711630329
119.07746687787211
119.05736028468495
145.62321138612955
145.50116924829464
145.38080987346208
145.26215506099564
145.14524101464357
145.03011851470933
144.91685310657866
144.80552512980384
144.69622923213495
144.58907266826154
144.4841709971279
144.38163863426107
144.281571538668
144.18402453249055
144.0885864505287
143.9933917979604
143.89843668504477
143.8037163022214
143.70922442415156
143.6149525805641
143.5208886881894
143.42701469028464
125.71090779191628
125.71090779191628
125.71090779191628
125.71090779191628
125.71090779191628
125.71090779191628
125.71090779191628
125.71090779191628
125.71090779191628
125.71090779191628
121.68442256453922
121.65928320400431
121.63474597285354
121.61080252999486
121.58744647433562
121.56467290640664
121.54247817618209
121.52085973162914
121.49981602738448
146.44994026718527
146.32758858173074
146.205949803242
146.08501563809963
145.96477203476005
145.84519898178135
145.72627023694992
145.6079530325007
145.49020784981175
145.37298845086525
145.2562425418321
145.13991376382842
145.02394577147948
144.90828778653426
144.7936650786246
144.6790978008124
144.56458321350527
144.4501187786231
144.3357022918966
144.2213321048585
144.10700749190823
143.99272928439592
125.71090779191628
125.71090779191628
125.71090779191628
125.71090779191628
125.71090779191628
125.71090779191628
125.71090779191628
125.71090779191628
125.71090779191628
125.71090779191628
121.71625492239352
121.69596937065288
121.675612627819
121.65518788422564
121.63469765589647
121.61414390439678
121.59352810624993
121.57285129490137
121.55211408615688
146.88894160119767
146.76662521580306
146.64491497536872
146.52381330228962
146.40332422016553
146.28345346030738
146.16420860915514
146.0455992860052
145.927637327702
145.81033693165662
145.69371465731317
145.5777890982586
145.46258001497586
145.34810707972156
145.23491387592347
145.12182124477988
145.0088306571608
144.8959435452479
144.78316126828588
144.67048505420615
144.5579159022133
144.445454413544
125.71090779191628
125.71090779191628
125.71090779191628
125.71090779191628
125.71090779191628
125.71090779191628
125.71090779191628
125.71090779191628
125.71090779191628
125.71090779191628
121.71604834732277
121.69453384364562
121.67312160408453
121.6518105095353
121.63059966134549
121.60948834832013
121.58847602743205
121.56756231205618
121.54674696478675
147.1360115386929
147.01369288022872
146.8918729853701
146.77055120760124
146.64972637248852
146.52939673415955
146.40955991416058
146.29021282486283
146.17135158285095
146.05297142444064
145.93506664932556
145.81763064241284
145.7006560309842
145.5841349390849
145.46874645484485
145.35343056981034
145.23818659652605
145.12301385182764
145.00791166544258
144.89287939507741
144.77791645200585
144.6630223459776
125.71090779191628
125.71090779191628
125.71090779191628
125.71090779191628
125.71090779191628
125.71090779191628
125.71090779191628
125.71090779191628
125.71090779191628
125.71090779191628
121.71605044310733
121.69485700918538
121.67371974007517
121.65263898370121
121.63161501830727
121.6106480615982
121.58973827614561
121.56888577272031
121.54809061234347
147.2683021110592
147.14598179651745
147.02410269374707
146.90266500655173
146.7816690242822
146.66111513763295
146.54100386108314
146.42133586166366
146.30211199292333
146.18333333121274
146.06500120767814
145.94711722278635
145.82968322803356
145.71270128471735
145.5968586277361
145.48109022813304
145.36539628870702
145.24977701246797
145.13423260055123
145.01876324838236
144.90336913900722
144.78805043120428
125.71090779191628
125.71090779191628
125.71090779191628
125.71090779191628
125.71090779191628
125.71090779191628
125.71090779191628
125.71090779191628
125.71090779191628
125.71090779191628
121.71607983301485
121.69480224726733
121.67359311703244
121.65245231467726
121.6313797341221
121.61037528828072
121.58943890752698
121.56857053873814
121.54777014470058
147.33305491894603
147.21073497220613
147.08883022319978
146.9673406795939
146.84626629348952
146.72560695578207
146.6053624880679
146.48553263207876
146.36611703682374
146.24711524409213
146.12852667401995
146.0103506143134
145.89258621740552
145.77523250272503
145.6589973382119
145.54283241896525
145.426737650429
145.31071293709738
145.19475818301893
145.07887329280103
144.96305817342557
144.84731273755943
125.71090779191628
125.71090779191628
125.71090779191628
125.71090779191628
125.71090779191628
125.71090779191628
125.71090779191628
125.71090779191628
125.71090779191628
125.71090779191628
121.71606507792116
121.69480996036253
121.6736199586696
121.65249509762641
121.63143539492451
121.61044086193058
121.5895115041535
121.56864732153959
121.547848308658
147.35239438983285
147.23007411408113
147.10816042815594
146.98665340223235
146.86555309952607
146.7448595795478
146.6245729028098
146.5046931370423
146.38522036489545
146.26615469287867
146.14749626077517
146.02924524982348
145.91140188759778
145.79396645102918
145.67764924001045
145.56140229609196
145.4452256561428
145.32911935749485
145.2130834377332
145.09711793423742
144.98122288331612
144.86539831859312
125.71090779191628
125.71090779191628
125.71090779191628
125.71090779191628
125.71090779191628
125.71090779191628
125.71090779191628
125.71090779191628
125.71090779191628
125.71090779191628
121.71607179854163
121.69480934457857
121.67361311788092
121.65248308428414
121.63141921344676
121.61042147845089
121.58948985555621
121.56862432404313
121.54782486611336
147.33305491894563
147.2107349722057
147.0888302231993
146.96734067959326
146.8462662934886
146.7256069557808
146.60536248806633
146.48553263207708
146.3661170368219
146.24711524408994
146.12852667401737
146.01035061431034
145.89258621740194
145.7752325027209
145.65899733820729
145.54283241896022
145.42673765042358
145.31071293709155
145.19475818301277
145.07887329279467
144.96305817341909
144.84731273755287
125.71090779191628
125.71090779191628
125.71090779191628
125.71090779191628
125.71090779191628
125.71090779191628
125.71090779191628
125.71090779191628
125.71090779191628
125.71090779191628
121.71606507790955
121.69480996035091
121.67361995865795
121.65249509761473
121.63143539491277
121.61044086191875
121.58951150414161
121.56864732152768
121.5478483086461
147.26830211106588
147.14598179652413
147.02410269375375
146.90266500655852
146.78166902428913
146.66111513764005
146.5410038610903
146.42133586167074
146.30211199293032
146.18333333121979
146.0650012076853
145.94711722279374
145.82968322804115
145.71270128472523
145.5968586277443
145.48109022814145
145.3653962887157
145.24977701247695
145.13423260056035
145.01876324839154
144.90336913901635
144.78805043121338
125.71090779191628
125.71090779191628
125.71090779191628
125.71090779191628
125.71090779191628
125.71090779191628
125.71090779191628
125.71090779191628
125.71090779191628
125.71090779191628
121.71607983297793
121.69480224723023
121.67359311699515
121.65245231463977
121.6313797340844
121.61037528824288
121.58943890748903
121.56857053870013
121.54777014466256
147.1360115387035
147.01369288023935
146.8918729853809
146.77055120761213
146.64972637249934
146.52939673417015
146.40955991417113
146.29021282487332
146.1713515828613
146.0529714244507
145.9350666493352
145.81763064242193
145.70065603099277
145.58413493909293
145.4687464548524
145.3534305698175
145.23818659653296
145.12301385183432
145.00791166544911
144.89287939508387
144.77791645201228
144.66302234598396
125.71090779191628
125.71090779191628
125.71090779191628
125.71090779191628
125.71090779191628
125.71090779191628
125.71090779191628
125.71090779191628
125.71090779191628
125.71090779191628
121.71605044310456
121.69485700918263
121.67371974007243
121.65263898369852
121.63161501830467
121.61064806159573
121.58973827614318
121.56888577271785
121.54809061234101
146.88894160122248
146.76662521582787
146.64491497539342
146.52381330231427
146.40332422019011
146.28345346033194
146.1642086091796
146.04559928602959
145.92763732772642
145.8103369316811
145.69371465733772
145.57778909828326
145.46258001500058
145.34810707974634
145.23491387594825
145.12182124480466
145.00883065718543
144.89594354527222
144.78316126831007
144.6704850542301
144.55791590223697
144.44545441356743
125.71090779191628
125.71090779191628
125.71090779191628
125.71090779191628
125.71090779191628
125.71090779191628
125.71090779191628
125.71090779191628
125.71090779191628
125.71090779191628
121.71604834731716
121.69453384363996
121.67312160407883
121.65181050952957
121.63059966133972
121.60948834831431
121.58847602742622
121.56756231205038
121.54674696478097
146.44994026721653
146.327588581762
146.2059498032734
146.0850156381312
145.96477203479182
145.8451989818133
145.72627023698206
145.60795303253295
145.4902078498441
145.37298845089768
145.25624254186462
145.13991376386107
145.0239457715124
144.90828778656746
144.79366507865808
144.67909780084614
144.56458321353932
144.45011877865753
144.33570229193123
144.22133210489332
144.1070074919432
143.99272928443088
125.71090779191628
125.71090779191628
125.71090779191628
125.71090779191628
125.71090779191628
125.71090779191628
125.71090779191628
125.71090779191628
125.71090779191628
125.71090779191628
121.71625492236923
121.69596937062843
121.67561262779444
121.65518788420096
121.63469765587176
121.61414390437207
121.59352810622525
121.57285129487676
121.55211408613228
145.62321138613748
145.50116924830257
145.38080987347
145.26215506100363
145.14524101465153
145.03011851471717
144.91685310658636
144.80552512981146
144.6962292321425
144.58907266826915
144.48417099713558
144.3816386342688
144.28157153867573
144.18402453249826
144.08858645053633
143.99339179796794
143.89843668505225
143.80371630222868
143.70922442415886
143.61495258057133
143.5208886881964
143.42701469029151
125.71090779191628
125.71090779191628
125.71090779191628
125.71090779191628
125.71090779191628
125.71090779191628
125.71090779191628
125.71090779191628
125.71090779191628
125.71090779191628
121.68442256454118
121.65928320400626
121.63474597285548
121.61080252999682
121.58744647433754
121.56467290640843
121.54247817618376
121.52085973163072
121.49981602738603
144.35260195973413
144.22853897228902
144.1026245984035
143.9748333158606
143.8451232308021
143.71343658358427
143.5797006519309
143.44382970626242
143.30572933114271
143.16530568195844
143.02248473732848
142.87725078656052
142.72971379382025
142.58019545926462
142.43095685503505
142.28169756386052
142.13248334650464
141.98338368687786
141.83447359386398
141.68583664041765
141.53757000410295
141.3897931955729
125.71090779191628
125.71090779191628
125.71090779191628
125.71090779191628
125.71090779191628
125.71090779191628
125.71090779191628
125.71090779191628
125.71090779191628
125.71090779191628
119.20933088510212
119.19152767242664
119.1733494995933
119.15481965020552
119.13595536114502
119.1167694349319
119.09727116301553
119.0774668778548
119.05736028466762
144.34363491587786
144.21956529744628
144.09363409722098
143.96581419761674
143.83606138047122
143.7043143117387
143.57049398618418
143.434502838637
143.2962235309734
143.1555173824992
143.01222210023795
142.86615820399803
142.71720896368012
142.5655338057107
142.41373611380635
142.26184070947536
142.10988896945884
141.9579039411763
141.80588124091358
141.6537751823067
141.50146684051433
141.34868358700993
141.1943376212428
121.66347847380861
121.6202713600949
121.61411642308042
121.61627294531422
121.61557588113259
121.61569237051054
121.61646788409784
121.60439035749114
119.20877750844821
119.19013928010595
119.17158151033563
119.15286694508686
119.1339462281232
119.11479652222884
119.09540733069163
119.07577361800264
119.05589298721512
119.03576439422075
144.33485168551084
144.2107762390866
144.0848304925764
143.95698567055882
143.8271952359978
143.69539433074948
143.56149773983333
143.42539616387307
143.2869494707204
143.1459743123867
143.0022204474061
142.85534034464075
142.70496845897773
142.55108585411216
142.39667484900144
142.24209915636473
142.0873841752978
141.93251454086018
141.77741735175843
141.62194037777513
141.46581080871013
141.3085203399963
141.14926932439147
121.67064413789933
121.59163232326374
121.59482976604026
121.59450400640026
121.59453350008704
121.59418420833357
121.59613309260483
121.57967289341131
119.19049002920652
119.1710961058659
119.1518721217017
119.13266244534364