# vtk DataFile Version 2.0
Niestacjonarne zagadnienie cieplne - ogrzewanie wody w garnku stalowym
ASCII
DATASET UNSTRUCTURED_GRID
POINTS 1353 float
0.0 0.0 0.0
0.0 3.846153846153846E-4 0.0
0.0 7.692307692307692E-4 0.0
0.0 0.0011538461538461537 0.0
0.0 0.0015384615384615385 0.0
0.0 0.0019230769230769232 0.0
0.0 0.0023076923076923075 0.0
0.0 0.002692307692307692 0.0
0.0 0.003076923076923077 0.0
0.0 0.0034615384615384616 0.0
0.0 0.0038461538461538464 0.0
0.0 0.004230769230769231 0.0
0.0 0.004615384615384615 0.0
0.0 0.005 0.0
0.0 0.005111111111111111 0.0
0.0 0.005222222222222223 0.0
0.0 0.005333333333333333 0.0
0.0 0.0054444444444444445 0.0
0.0 0.005555555555555556 0.0
0.0 0.005666666666666667 0.0
0.0 0.0057777777777777775 0.0
0.0 0.005888888888888889 0.0
0.0 0.006 0.0
0.0 0.01711111111111111 0.0
0.0 0.028222222222222225 0.0
0.0 0.03933333333333333 0.0
0.0 0.050444444444444445 0.0
0.0 0.06155555555555556 0.0
0.0 0.07266666666666667 0.0
0.0 0.08377777777777778 0.0
0.0 0.0948888888888889 0.0
0.0 0.10600000000000001 0.0
0.0 0.10611111111111113 0.0
0.0 0.10622222222222223 0.0
0.0 0.10633333333333335 0.0
0.0 0.10644444444444445 0.0
0.0 0.10655555555555557 0.0
0.0 0.10666666666666667 0.0
0.0 0.10677777777777779 0.0
0.0 0.1068888888888889 0.0
0.0 0.10700000000000001 0.0
1.1111111111111112E-4 0.0 0.0
1.1111111111111112E-4 3.846153846153846E-4 0.0
1.1111111111111112E-4 7.692307692307692E-4 0.0
1.1111111111111112E-4 0.0011538461538461537 0.0
1.1111111111111112E-4 0.0015384615384615385 0.0
1.1111111111111112E-4 0.0019230769230769232 0.0
1.1111111111111112E-4 0.0023076923076923075 0.0
1.1111111111111112E-4 0.002692307692307692 0.0
1.1111111111111112E-4 0.003076923076923077 0.0
1.1111111111111112E-4 0.0034615384615384616 0.0
1.1111111111111112E-4 0.0038461538461538464 0.0
1.1111111111111112E-4 0.004230769230769231 0.0
1.1111111111111112E-4 0.004615384615384615 0.0
1.1111111111111112E-4 0.005 0.0
1.1111111111111112E-4 0.005111111111111111 0.0
1.1111111111111112E-4 0.005222222222222223 0.0
1.1111111111111112E-4 0.005333333333333333 0.0
1.1111111111111112E-4 0.0054444444444444445 0.0
1.1111111111111112E-4 0.005555555555555556 0.0
1.1111111111111112E-4 0.005666666666666667 0.0
1.1111111111111112E-4 0.0057777777777777775 0.0
1.1111111111111112E-4 0.005888888888888889 0.0
1.1111111111111112E-4 0.006 0.0
1.1111111111111112E-4 0.01711111111111111 0.0
1.1111111111111112E-4 0.028222222222222225 0.0
1.1111111111111112E-4 0.03933333333333333 0.0
1.1111111111111112E-4 0.050444444444444445 0.0
1.1111111111111112E-4 0.06155555555555556 0.0
1.1111111111111112E-4 0.07266666666666667 0.0
1.1111111111111112E-4 0.08377777777777778 0.0
1.1111111111111112E-4 0.0948888888888889 0.0
1.1111111111111112E-4 0.10600000000000001 0.0
1.1111111111111112E-4 0.10611111111111113 0.0
1.1111111111111112E-4 0.10622222222222223 0.0
1.1111111111111112E-4 0.10633333333333335 0.0
1.1111111111111112E-4 0.10644444444444445 0.0
1.1111111111111112E-4 0.10655555555555557 0.0
1.1111111111111112E-4 0.10666666666666667 0.0
1.1111111111111112E-4 0.10677777777777779 0.0
1.1111111111111112E-4 0.1068888888888889 0.0
1.1111111111111112E-4 0.10700000000000001 0.0
2.2222222222222223E-4 0.0 0.0
2.2222222222222223E-4 3.846153846153846E-4 0.0
2.2222222222222223E-4 7.692307692307692E-4 0.0
2.2222222222222223E-4 0.0011538461538461537 0.0
2.2222222222222223E-4 0.0015384615384615385 0.0
2.2222222222222223E-4 0.0019230769230769232 0.0
2.2222222222222223E-4 0.0023076923076923075 0.0
2.2222222222222223E-4 0.002692307692307692 0.0
2.2222222222222223E-4 0.003076923076923077 0.0
2.2222222222222223E-4 0.0034615384615384616 0.0
2.2222222222222223E-4 0.0038461538461538464 0.0
2.2222222222222223E-4 0.004230769230769231 0.0
2.2222222222222223E-4 0.004615384615384615 0.0
2.2222222222222223E-4 0.005 0.0
2.2222222222222223E-4 0.005111111111111111 0.0
2.2222222222222223E-4 0.005222222222222223 0.0
2.2222222222222223E-4 0.005333333333333333 0.0
2.2222222222222223E-4 0.0054444444444444445 0.0
2.2222222222222223E-4 0.005555555555555556 0.0
2.2222222222222223E-4 0.005666666666666667 0.0
2.2222222222222223E-4 0.0057777777777777775 0.0
2.2222222222222223E-4 0.005888888888888889 0.0
2.2222222222222223E-4 0.006 0.0
2.2222222222222223E-4 0.01711111111111111 0.0
2.2222222222222223E-4 0.028222222222222225 0.0
2.2222222222222223E-4 0.03933333333333333 0.0
2.2222222222222223E-4 0.050444444444444445 0.0
2.2222222222222223E-4 0.06155555555555556 0.0
2.2222222222222223E-4 0.07266666666666667 0.0
2.2222222222222223E-4 0.08377777777777778 0.0
2.2222222222222223E-4 0.0948888888888889 0.0
2.2222222222222223E-4 0.10600000000000001 0.0
2.2222222222222223E-4 0.10611111111111113 0.0
2.2222222222222223E-4 0.10622222222222223 0.0
2.2222222222222223E-4 0.10633333333333335 0.0
2.2222222222222223E-4 0.10644444444444445 0.0
2.2222222222222223E-4 0.10655555555555557 0.0
2.2222222222222223E-4 0.10666666666666667 0.0
2.2222222222222223E-4 0.10677777777777779 0.0
2.2222222222222223E-4 0.1068888888888889 0.0
2.2222222222222223E-4 0.10700000000000001 0.0
3.333333333333334E-4 0.0 0.0
3.333333333333334E-4 3.846153846153846E-4 0.0
3.333333333333334E-4 7.692307692307692E-4 0.0
3.333333333333334E-4 0.0011538461538461537 0.0
3.333333333333334E-4 0.0015384615384615385 0.0
3.333333333333334E-4 0.0019230769230769232 0.0
3.333333333333334E-4 0.0023076923076923075 0.0
3.333333333333334E-4 0.002692307692307692 0.0
3.333333333333334E-4 0.003076923076923077 0.0
3.333333333333334E-4 0.0034615384615384616 0.0
3.333333333333334E-4 0.0038461538461538464 0.0
3.333333333333334E-4 0.004230769230769231 0.0
3.333333333333334E-4 0.004615384615384615 0.0
3.333333333333334E-4 0.005 0.0
3.333333333333334E-4 0.005111111111111111 0.0
3.333333333333334E-4 0.005222222222222223 0.0
3.333333333333334E-4 0.005333333333333333 0.0
3.333333333333334E-4 0.0054444444444444445 0.0
3.333333333333334E-4 0.005555555555555556 0.0
3.333333333333334E-4 0.005666666666666667 0.0
3.333333333333334E-4 0.0057777777777777775 0.0
3.333333333333334E-4 0.005888888888888889 0.0
3.333333333333334E-4 0.006 0.0
3.333333333333334E-4 0.01711111111111111 0.0
3.333333333333334E-4 0.028222222222222225 0.0
3.333333333333334E-4 0.03933333333333333 0.0
3.333333333333334E-4 0.050444444444444445 0.0
3.333333333333334E-4 0.06155555555555556 0.0
3.333333333333334E-4 0.07266666666666667 0.0
3.333333333333334E-4 0.08377777777777778 0.0
3.333333333333334E-4 0.0948888888888889 0.0
3.333333333333334E-4 0.10600000000000001 0.0
3.333333333333334E-4 0.10611111111111113 0.0
3.333333333333334E-4 0.10622222222222223 0.0
3.333333333333334E-4 0.10633333333333335 0.0
3.333333333333334E-4 0.10644444444444445 0.0
3.333333333333334E-4 0.10655555555555557 0.0
3.333333333333334E-4 0.10666666666666667 0.0
3.333333333333334E-4 0.10677777777777779 0.0
3.333333333333334E-4 0.1068888888888889 0.0
3.333333333333334E-4 0.10700000000000001 0.0
4.4444444444444447E-4 0.0 0.0
4.4444444444444447E-4 3.846153846153846E-4 0.0
4.4444444444444447E-4 7.692307692307692E-4 0.0
4.4444444444444447E-4 0.0011538461538461537 0.0
4.4444444444444447E-4 0.0015384615384615385 0.0
4.4444444444444447E-4 0.0019230769230769232 0.0
4.4444444444444447E-4 0.0023076923076923075 0.0
4.4444444444444447E-4 0.002692307692307692 0.0
4.4444444444444447E-4 0.003076923076923077 0.0
4.4444444444444447E-4 0.0034615384615384616 0.0
4.4444444444444447E-4 0.0038461538461538464 0.0
4.4444444444444447E-4 0.004230769230769231 0.0
4.4444444444444447E-4 0.004615384615384615 0.0
4.4444444444444447E-4 0.005 0.0
4.4444444444444447E-4 0.005111111111111111 0.0
4.4444444444444447E-4 0.005222222222222223 0.0
4.4444444444444447E-4 0.005333333333333333 0.0
4.4444444444444447E-4 0.0054444444444444445 0.0
4.4444444444444447E-4 0.005555555555555556 0.0
4.4444444444444447E-4 0.005666666666666667 0.0
4.4444444444444447E-4 0.0057777777777777775 0.0
4.4444444444444447E-4 0.005888888888888889 0.0
4.4444444444444447E-4 0.006 0.0
4.4444444444444447E-4 0.01711111111111111 0.0
4.4444444444444447E-4 0.028222222222222225 0.0
4.4444444444444447E-4 0.03933333333333333 0.0
4.4444444444444447E-4 0.050444444444444445 0.0
4.4444444444444447E-4 0.06155555555555556 0.0
4.4444444444444447E-4 0.07266666666666667 0.0
4.4444444444444447E-4 0.08377777777777778 0.0
4.4444444444444447E-4 0.0948888888888889 0.0
4.4444444444444447E-4 0.10600000000000001 0.0
4.4444444444444447E-4 0.10611111111111113 0.0
4.4444444444444447E-4 0.10622222222222223 0.0
4.4444444444444447E-4 0.10633333333333335 0.0
4.4444444444444447E-4 0.10644444444444445 0.0
4.4444444444444447E-4 0.10655555555555557 0.0
4.4444444444444447E-4 0.10666666666666667 0.0
4.4444444444444447E-4 0.10677777777777779 0.0
4.4444444444444447E-4 0.1068888888888889 0.0
4.4444444444444447E-4 0.10700000000000001 0.0
5.555555555555556E-4 0.0 0.0
5.555555555555556E-4 3.846153846153846E-4 0.0
5.555555555555556E-4 7.692307692307692E-4 0.0
5.555555555555556E-4 0.0011538461538461537 0.0
5.555555555555556E-4 0.0015384615384615385 0.0
5.555555555555556E-4 0.0019230769230769232 0.0
5.555555555555556E-4 0.0023076923076923075 0.0
5.555555555555556E-4 0.002692307692307692 0.0
5.555555555555556E-4 0.003076923076923077 0.0
5.555555555555556E-4 0.0034615384615384616 0.0
5.555555555555556E-4 0.0038461538461538464 0.0
5.555555555555556E-4 0.004230769230769231 0.0
5.555555555555556E-4 0.004615384615384615 0.0
5.555555555555556E-4 0.005 0.0
5.555555555555556E-4 0.005111111111111111 0.0
5.555555555555556E-4 0.005222222222222223 0.0
5.555555555555556E-4 0.005333333333333333 0.0
5.555555555555556E-4 0.0054444444444444445 0.0
5.555555555555556E-4 0.005555555555555556 0.0
5.555555555555556E-4 0.005666666666666667 0.0
5.555555555555556E-4 0.0057777777777777775 0.0
5.555555555555556E-4 0.005888888888888889 0.0
5.555555555555556E-4 0.006 0.0
5.555555555555556E-4 0.01711111111111111 0.0
5.555555555555556E-4 0.028222222222222225 0.0
5.555555555555556E-4 0.03933333333333333 0.0
5.555555555555556E-4 0.050444444444444445 0.0
5.555555555555556E-4 0.06155555555555556 0.0
[...]
POINT_DATA 1353
SCALARS Temperatura float 1
LOOKUP_TABLE default
100.33826199326334
100.20535464589126
100.07101791313727
99.93521303023044
99.79789222924177
99.6589899717702
99.51841631085226
99.3760450542567
99.23169291081118
99.0850726333474
98.93572786875721
98.78276257950377
98.62489300265656
98.45573498602869
98.27687263127522
98.10604307165508
97.93715820548856
97.76904856826944
97.60090989401537
97.43213560730383
97.2621961128348
97.09059946967548
96.916875818256
77.18430039903261
76.98063865355452
77.01558937547739
77.00697525176166
77.00926951357265
77.00797223130773
77.01136294770869
76.99383221363406
75.620784166734
75.60877208757461
75.59691502253025
75.58518646946499
75.57356149822908
75.56201781842665
75.55053655424966
75.53910273649271
75.52770556930837
75.51633854810545
100.34312280487333
100.21020973211927
100.07586636316407
99.94005537973128
99.80272908871757
99.66382225024829
99.5232452983545
99.38087309931153
99.23652301227338
99.08991519564238
98.94058140299234
98.7877226286124
98.62971142049689
98.46237084900801
98.29120982331771
98.12118423253183
97.95282078378001
97.78503622134156
97.61715423425879
97.44860483375014
97.2788745634507
97.10747741615492
96.9339445154336
77.1941305778823
76.99283026806202
77.02716787413567
77.0187142385643
77.0209639895445
77.01968843513419
77.0230343820067
77.00566757220815
75.63211352418787
75.62011261120877
75.60826658857106
75.59654827468196
75.5849321908687
75.573395657803
75.56191956121793
75.55048880969024
75.53909255871491
75.52772429108484
100.34814225450212
100.21522654292052
100.08087944987369
99.94506626879938
99.8077398523504
99.66883574249343
99.52826570656066
99.38590701236211
99.24158210520277
99.0950198577476
98.94577321578454
98.79308763680378
98.63537488728376
98.47015857119194
98.30252183438193
98.13507237150375
97.96805508189085
97.80124845047837
97.63417448105336
97.46635574610039
97.2973179621097
97.12658929609064
96.95370153491825
77.20022878167268
77.00610177122185
77.03858355639069
77.03061566606343
77.03273068396473
77.03152097152781
77.0347310540084
77.01786356905461
75.643352205681
75.63139047921517
75.6195831351614
75.60790089187455
75.59631660749062
75.58480645958406
75.5733506669753
75.56193382517907
75.55054498801617
75.53917762831992
100.35332136891
100.22040496670954
100.086057057007
99.95024552900723
99.81292428872604
99.67403013076402
99.53347696993163
99.39114608096848
99.2468678940376
99.10038604440759
98.95128843454955
98.79887104335984
98.641792851807
98.47856125669284
98.3135312218739
98.14836634736169
97.98316963474866
97.81782259490797
97.6520345511705
97.48541919696721
97.31754613055921
97.1479565044659
96.97617574013141
77.20258353187403
77.02045782450864
77.04983478969442
77.04268011226722
77.04456940501959
77.04347002436215
77.04645265622413
77.03042098409935
75.65449838985846
75.64260630233447
75.63086745203694
75.61924880008247
75.60772034863032
75.59625644299247
75.58483635146203
75.57344432280631
75.56206938154402
75.55070506967719
100.358660643484
100.22574494671527
100.09139896256364
99.95559287538926
99.81828201404848
99.67940486496302
99.5388782330707
99.39658884428846
99.25237767489493
99.10600923211715
98.95711406058098
98.80506830385863
98.64882508060688
98.48745558522818
98.32469795933888
98.16169588120984
97.99846682162176
97.83490955478838
97.67080221009573
97.50582420493892
97.33957832529133
97.17160785156517
97.0014152470918
77.20117609384953
77.03590608454749
77.06091886428831
77.05490852207846
77.05647982143505
77.05553588672994
77.05819866508347
77.0433410950791
75.66554895558394
75.65376142985117
75.64212480116952
75.6306001503021
75.61915333189025
75.60775636712808
75.59638761753858
75.5850312606353
75.57367658645751
75.56231741059736
100.36416025172309
100.23124636566118
100.09690485847234
99.96110790490854
99.82381249447015
99.68495918710907
99.54446832605879
99.40223329458192
99.25810794202343
99.11188240639366
98.96323728301249
98.81165357350865
98.65636169640847
98.49678143797213
98.33617237304883
98.17529963506013
98.01414312128702
97.85260787058189
97.69050970494234
97.52757007943787
97.36341352566272
97.19756920251305
97.02948824103038
77.19598024124751
77.05245727284999
77.07183197196105
77.06730221410186
77.06846145945275
77.0677189650905
77.06996832823816
77.05662572260344
75.6764993181376
75.66485861385567
75.65336408951634
75.64196799949603
75.63063075248549
75.61932211179798
75.6080202428851
75.59671004795567
75.58538168622056
75.57402960811565
100.36982014406946
100.23690900534648
100.10257434854623
99.96679009981962
99.82951505280549
99.6906921473531
99.5502457878729
99.408076975174
99.26405432292194
99.11799712263998
98.96964284781446
98.81859129927294
98.66431761144834
98.50648816507238
98.34798703507693
98.18925338005589
98.03026060878902
97.87093132429943
97.71111973226202
97.55059278517923
97.38900027907623
97.22584562034278
97.06048468524443
77.18696177444023
77.07012531411002
77.0825691653918
77.07986289315912
77.08051369758446
77.08001978612846
77.08176064359917
77.07027730489408
75.68734315665662
75.67590345944858
75.66460023722294
75.65337250682383
75.64217455414807
75.63097537145498
75.6197549754118
75.60850045482057
75.59720376805296
75.58586050577296
100.37564009853814
100.24273253502407
100.1084069432874
99.97263883159104
99.83538887735591
99.69660262116295
99.55620890699475
99.41411704350993
99.27021173992584
99.12434386797906
98.97631288119538
98.82584271724824
98.67262322922257
98.51652217416411
98.3601171888011
98.20354205138459
98.0467851611432
97.8898024703446
97.73250207933822
97.57472170959777
97.41618534900479
97.25638415193255
97.09451973336542
77.17407757512669
77.08892760159777
77.09312428232339
77.09259267284358
77.09263575762104
77.09243900807546
77.09357432465518
77.08429902218602
75.69807195860753
75.68690794060159
75.675858950081
75.66484487350752
75.65381508025034
75.64274416589593
75.63161746335786
75.62042626531773
75.609165454609
75.59783233131886
100.38161974946102
100.24871651080042
100.11440205636741
99.97865336484354
99.84143303189366
99.70268932998823
99.56235576502337
99.42035034763909
99.2765746062724
99.13091230793208
98.98322763515225
98.83336875893174
98.6812180120932
98.52682513419917
98.37250470183879
98.21809502352166
98.06361347947407
97.90906313189008
97.75442443961809
97.59964124958869
97.44458798544305
97.28898924891955
97.13174056807738
77.15727373436151
77.10888551394748
77.10348980112676
77.10549411729113
77.1048266887077
77.1049774400298
77.10540774115907
77.09869501077816
75.7086742327255
75.697896980552
75.68719119032467
75.67643100096805
75.6655920048983
75.65466264839108
75.64363766018344
75.63251454248463
75.62129212615966
75.60996991016391
100.38775860589983
100.25486037918287
100.12055900334167
99.98483286140768
99.84764646652992
99.70895086413948
99.56868428236855
99.42677351606524
99.28313701771243
99.13769158762472
98.99036638661556
98.84113114765476
98.69004669610855
98.53733532805863
98.38507233502988
98.23280856418997
98.08059690694542
97.92849474310091
97.77656600820434
97.62488437457112
97.47353831765487
97.32263976646024
79.83426969494059
79.83426969494059
79.83426969494059
79.83426969494059
79.83426969494059
79.83426969494059
79.83426969494059
79.83426969494059
79.83426969494059
79.83426969494059
75.70899702275315
75.69867738112309
75.68819201510343
75.67755310394132
75.66676969119783
75.65584850517568
75.64479443420645
75.63361081128339
75.62229958522695
101.34444381057476
101.213217359272
101.0835506050679
100.95546181319499
100.82898129156435
100.704151541152
100.5810274429745
100.45967635175468
100.34017783350774
100.22262253213692
100.10710914629998
99.99373762532039
99.8825963110994
99.77374350841346
99.66697236700684
99.56044334870504
99.45415381664253
99.34810000151556
99.24227643684974
99.13667509388064
99.0312840082819
98.92608494196726
79.83426969494059
79.83426969494059
79.83426969494059
79.83426969494059
79.83426969494059
79.83426969494059
79.83426969494059
79.83426969494059
79.83426969494059
79.83426969494059
77.14551040541863
77.13086934076043
77.1166348207965
77.10280233309956
77.0893683927523
77.07633031911388
77.06368610589323
77.05143434298252
77.03957416927872
101.97408391470489
101.8426003367251
101.71189432328352
101.58195901425114
101.45278276150478
101.3243489585794
101.19663580664994
101.0696160497691
100.94325674791013
100.81751922494392
100.69235946668935
100.56772948485566
100.44358027845492
100.31986630582817
100.19732458020991
100.07486491565737
99.9524848721649
99.83018227431658
99.70795536204064
99.5858030223518
99.46372515802241
99.34172331600823
79.83426969494059
79.83426969494059
79.83426969494059
79.83426969494059
79.83426969494059
79.83426969494059
79.83426969494059
79.83426969494059
79.83426969494059
79.83426969494059
77.16368887925209
77.15187963134166
77.1400850278849
77.12830682140465
77.11654639902918
77.10480484362215
77.09308296961595
77.0813813447229
77.06970030311462
102.30660624540805
102.17515238973482
102.04440147152314
101.91435556427392
101.78501808489652
101.65639388305632
101.5284893663168
101.40131265349858
101.27487373935993
101.14918463529878
101.02425941324266
100.90011401381075
100.776765645438
100.65423178849264
100.53308735506769
100.4120653804811
100.29116716181515
100.17039393850696
100.04974685298164
99.92922688946474
99.80883477591193
99.68857081602826
79.83426969494059
79.83426969494059
79.83426969494059
79.83426969494059
79.83426969494059
79.83426969494059
79.83426969494059
79.83426969494059
79.83426969494059
79.83426969494059
77.16355902143069
77.15103229692168
77.13862123393955
77.12632519436713
77.11414366113628
77.10207622135583
77.0901225563228
77.07828243541148
77.06655571233526
102.49382089216864
102.36236510962128
102.23153040888532
102.10131629741856
101.9717218454096
101.84274564931646
101.71438578024693
101.58663971864343
101.45950427909285
101.3329755339393
101.20704875449331
101.08171840667306
100.95697824793893
100.83282152346794
100.70993283090729
100.58714346460945
100.46445284483599
100.34186040211553
100.21936558730206
100.09696788750914
99.97466685197594
99.85246213674912
79.83426969494059
79.83426969494059
79.83426969494059
79.83426969494059
79.83426969494059
79.83426969494059
79.83426969494059
79.83426969494059
79.83426969494059
79.83426969494059
77.1635602136521
77.15122091999669
77.13897044262762
77.12680896638803
77.11473663745507
77.10275356803052
77.09085983915153
77.07905550242992
77.06734058112588
102.59389843229819
102.46244132691213
102.33156164716392
102.20125960973714
102.0715355050201
101.94238971033145
101.81382270881466
101.68583511383186
101.55842769811521
101.43160142567494
101.30535748175578
101.1796972912211
101.05462251286238
100.93013500998255
100.8069235893571
100.68381337456883
100.56080454957613
100.43789729674864
100.31509179435477
100.19238821246147
100.06978670614971
99.94728740364533
79.83426969494059
79.83426969494059
79.83426969494059
79.83426969494059
79.83426969494059
79.83426969494059
79.83426969494059
79.83426969494059
79.83426969494059
79.83426969494059
77.16357729254894
77.15118887424248
77.13889642940987
77.12669987423479
77.1145991368936
77.10259415623649
77.09068488098644
77.07887126923687
77.06715328813868
102.64285194045517
102.51139515221053
102.3804961954504
102.25015512161433
102.12037193677659
101.99114659692097
101.86247900112934
101.73436898264056
101.60681629787065
101.47982061382079
101.35338149505566
101.227498392842
101.10217063990169
100.97739745064435
100.8538837831077
100.73046811138869
100.60715036307151
100.48393046542527
100.36080834604343
100.23778393393846
100.1148571614057
99.9920279673451
79.83426969494059
79.83426969494059
79.83426969494059
79.83426969494059
79.83426969494059
79.83426969494059
79.83426969494059
79.83426969494059
79.83426969494059
79.83426969494059
77.16356866209878
77.1511933596683
77.13891208597434
77.12672484373893
77.11463163166655
77.10263244484177
77.09072727497453
77.07891611055625
77.06719893695835
102.65746436218873
102.526007305474
102.39510153817936
102.26474716393923
102.13494428151441
102.00569298751708
101.87699338036647
101.74884556553818
101.62124966211681
101.49420581050614
101.36771418078271
101.24177498047817
101.11638846013211
100.99155491672467
100.86798096581484
100.74450509706645
100.62112735028974
100.49784776542819
100.37466638227487
100.25158323996153
100.12859837606176
100.00571182496387
79.83426969494059
79.83426969494059
79.83426969494059
79.83426969494059
79.83426969494059
79.83426969494059
79.83426969494059
79.83426969494059
79.83426969494059
79.83426969494059
77.16357257852563
77.15119299350802
77.13890808441272
77.1267178203604
77.11462217258787
77.10262111424036
77.0907146202417
77.07890266721093
77.06718523340935
102.64285194045497
102.51139515221031
102.38049619545014
102.25015512161394
102.12037193677602
101.99114659692015
101.86247900112835
101.73436898263945
101.60681629786943
101.47982061381934
101.35338149505392
101.22749839283996
101.10217063989931
100.97739745064162
100.85388378310464
100.73046811138528
100.60715036306784
100.48393046542134
100.36080834603925
100.23778393393411
100.11485716140129
99.99202796734063
79.83426969494059
79.83426969494059
79.83426969494059
79.83426969494059
79.83426969494059
79.83426969494059
79.83426969494059
79.83426969494059
79.83426969494059
79.83426969494059
77.16356866209128
77.1511933596608
77.13891208596682
77.1267248437314
77.114631631659
77.10263244483416
77.09072727496687
77.07891611054859
77.0671989369507
102.59389843230275
102.4624413269167
102.33156164716851
102.2012596097418
102.07153550502485
101.94238971033633
101.81382270881956
101.68583511383673
101.55842769812003
101.43160142567979
101.30535748176074
101.17969729122619
101.0546225128676
100.93013500998799
100.80692358936274
100.68381337457463
100.56080454958209
100.43789729675483
100.31509179436107
100.19238821246782
100.06978670615601
99.94728740365161
79.83426969494059
79.83426969494059
79.83426969494059
79.83426969494059
79.83426969494059
79.83426969494059
79.83426969494059
79.83426969494059
79.83426969494059
79.83426969494059
77.16357729252569
77.15118887421913
77.1388964293864
77.1266998742112
77.11459913686988
77.10259415621269
77.09068488096256
77.07887126921294
77.06715328811474
102.49382089217605
102.3623651096287
102.23153040889284
102.10131629742612
101.97172184541711
101.84274564932382
101.71438578025426
101.58663971865072
101.45950427910006
101.33297553394631
101.20704875450002
101.0817184066794
100.9569782479449
100.83282152347351
100.70993283091255
100.58714346461446
100.46445284484082
100.3418604021202
100.21936558730664
100.09696788751363
99.97466685198042
99.85246213675356
79.83426969494059
79.83426969494059
79.83426969494059
79.83426969494059
79.83426969494059
79.83426969494059
79.83426969494059
79.83426969494059
79.83426969494059
79.83426969494059
77.16356021365027
77.15122091999486
77.1389704426258
77.12680896638625
77.11473663745332
77.10275356802885
77.09085983914987
77.07905550242825
77.0673405811242
102.30660624542521
102.17515238975197
102.04440147154025
101.91435556429096
101.7850180849135
101.65639388307326
101.52848936633367
101.40131265351539
101.27487373937676
101.14918463531563
101.02425941325957
100.90011401382773
100.77676564545503
100.65423178850966
100.53308735508467
100.41206538049809
100.29116716183205
100.17039393852367
100.04974685299824
99.92922688948123
99.80883477592823
99.68857081604439
79.83426969494059
79.83426969494059
79.83426969494059
79.83426969494059
79.83426969494059
79.83426969494059
79.83426969494059
79.83426969494059
79.83426969494059
79.83426969494059
77.16355902142715
77.15103229691812
77.13862123393596
77.12632519436355
77.11414366113269
77.1020762213522
77.09012255631916
77.07828243540786
77.06655571233163
101.97408391472626
101.84260033674649
101.711894323305
101.58195901427274
101.4527827615265
101.32434895860125
101.1966358066719
101.06961604979115
100.94325674793228
100.81751922496615
100.69235946671166
100.5677294848781
100.44358027847754
100.31986630585101
100.197324580233
100.07486491568069
99.95248487218845
99.83018227434039
99.7079553620646
99.58580302237587
99.46372515804659
99.3417233160324
79.83426969494059
79.83426969494059
79.83426969494059
79.83426969494059
79.83426969494059
79.83426969494059
79.83426969494059
79.83426969494059
79.83426969494059
79.83426969494059
77.16368887923687
77.15187963132635
77.1400850278695
77.12830682138919
77.11654639901369
77.10480484360664
77.09308296960047
77.08138134470747
77.06970030309918
101.34444381058012
101.21321735927735
101.08355060507324
100.95546181320033
100.82898129156969
100.70415154115732
100.58102744297973
100.45967635175985
100.34017783351285
100.22262253214204
100.10710914630512
99.99373762532555
99.88259631110459
99.77374350841865
99.66697236701195
99.56044334871012
99.45415381664756
99.34810000152044
99.2422764368546
99.13667509388542
99.03128400828652
98.92608494197181
79.83426969494059
79.83426969494059
79.83426969494059
79.83426969494059
79.83426969494059
79.83426969494059
79.83426969494059
79.83426969494059
79.83426969494059
79.83426969494059
77.14551040542004
77.13086934076183
77.11663482079793
77.102802333101
77.0893683927537
77.07633031911521
77.06368610589448
77.05143434298373
77.03957416927993
100.38775860590029
100.25486037918333
100.12055900334208
99.98483286140808
99.84764646653026
99.7089508641398
99.56868428236903
99.4267735160658
99.28313701771312
99.1376915876255
98.99036638661642
98.84113114765567
98.69004669610953
98.53733532805965
98.38507233503098
98.23280856419117
98.08059690694671
97.9284947431024
97.77656600820589
97.62488437457276
97.47353831765658
97.32263976646202
79.83426969494059
79.83426969494059
79.83426969494059
79.83426969494059
79.83426969494059
79.83426969494059
79.83426969494059
79.83426969494059
79.83426969494059
79.83426969494059
75.70899702274158
75.69867738111162
75.68819201509204
75.67755310392998
75.66676969118656
75.65584850516446
75.6447944341953
75.63361081127229
75.62229958521583
100.38161974946154
100.24871651080089
100.11440205636781
99.97865336484394
99.84143303189404
99.7026893299886
99.5623557650238
99.42035034763973
99.27657460627317
99.13091230793292
98.98322763515307
98.83336875893279
98.68121801209439
98.52682513420031
98.37250470183999
98.21809502352288
98.06361347947531
97.90906313189146
97.7544244396196
97.59964124959025
97.44458798544464
97.28898924892124
97.13174056807908
77.15727373437046
77.10888551398038
77.10348980113909
77.1054941173027
77.10482668875315
77.10497744004019
77.10540774115755
77.09869501078006
75.70867423271396
75.69789698054046
75.68719119031316
75.6764310009566
75.66559200488689
75.65466264837974
75.64363766017215
75.63251454247334
75.62129212614838
75.60996991015263
100.37564009853874
100.24273253502453
100.10840694328789
99.97263883159135
99.83538887735631
99.69660262116335
99.55620890699518
99.41411704351067
99.27021173992667
99.12434386797996
98.97631288119615
98.82584271724939
98.67262322922382
98.51652217416535
98.3601171888024
98.20354205138585
98.04678516114447
97.88980247034601
97.73250207933968
97.57472170959925
97.41618534900634
97.25638415193414
97.09451973336716
77.17407757513577
77.08892760163086
77.09312428233561
77.09259267285522
77.09263575766671
77.09243900808583
77.09357432465369
77.08429902218774
75.69807195859589
75.68690794058995
75.67585895006937
75.66484487349592
75.65381508023883
75.64274416588445
75.63161746334647
75.6204262653063
75.60916545459756
75.59783233130736
100.36982014406996
100.23690900534707
100.10257434854667
99.96679009981989
99.82951505280599
99.69069214735345
99.5502457878733
99.40807697517475
99.26405432292286
99.11799712264084
98.96964284781524
98.8185912992741
98.66431761144973
98.50648816507368
98.34798703507822
98.18925338005718
98.03026060879029
97.87093132430086
97.71111973226343
97.55059278518075
97.38900027907773
97.2258456203443
97.06048468524607
77.18696177444953
77.07012531414324
77.08256916540404
77.07986289317098
77.08051369763022
77.08001978613885
77.08176064359763
77.07027730489581
75.6873431566449
75.67590345943687
75.66460023721123