# vtk DataFile Version 2.0
Niestacjonarne zagadnienie cieplne - ogrzewanie wody w garnku stalowym
ASCII
DATASET UNSTRUCTURED_GRID
POINTS 1353 float
0.0 0.0 0.0
0.0 3.846153846153846E-4 0.0
0.0 7.692307692307692E-4 0.0
0.0 0.0011538461538461537 0.0
0.0 0.0015384615384615385 0.0
0.0 0.0019230769230769232 0.0
0.0 0.0023076923076923075 0.0
0.0 0.002692307692307692 0.0
0.0 0.003076923076923077 0.0
0.0 0.0034615384615384616 0.0
0.0 0.0038461538461538464 0.0
0.0 0.004230769230769231 0.0
0.0 0.004615384615384615 0.0
0.0 0.005 0.0
0.0 0.005111111111111111 0.0
0.0 0.005222222222222223 0.0
0.0 0.005333333333333333 0.0
0.0 0.0054444444444444445 0.0
0.0 0.005555555555555556 0.0
0.0 0.005666666666666667 0.0
0.0 0.0057777777777777775 0.0
0.0 0.005888888888888889 0.0
0.0 0.006 0.0
0.0 0.01711111111111111 0.0
0.0 0.028222222222222225 0.0
0.0 0.03933333333333333 0.0
0.0 0.050444444444444445 0.0
0.0 0.06155555555555556 0.0
0.0 0.07266666666666667 0.0
0.0 0.08377777777777778 0.0
0.0 0.0948888888888889 0.0
0.0 0.10600000000000001 0.0
0.0 0.10611111111111113 0.0
0.0 0.10622222222222223 0.0
0.0 0.10633333333333335 0.0
0.0 0.10644444444444445 0.0
0.0 0.10655555555555557 0.0
0.0 0.10666666666666667 0.0
0.0 0.10677777777777779 0.0
0.0 0.1068888888888889 0.0
0.0 0.10700000000000001 0.0
1.1111111111111112E-4 0.0 0.0
1.1111111111111112E-4 3.846153846153846E-4 0.0
1.1111111111111112E-4 7.692307692307692E-4 0.0
1.1111111111111112E-4 0.0011538461538461537 0.0
1.1111111111111112E-4 0.0015384615384615385 0.0
1.1111111111111112E-4 0.0019230769230769232 0.0
1.1111111111111112E-4 0.0023076923076923075 0.0
1.1111111111111112E-4 0.002692307692307692 0.0
1.1111111111111112E-4 0.003076923076923077 0.0
1.1111111111111112E-4 0.0034615384615384616 0.0
1.1111111111111112E-4 0.0038461538461538464 0.0
1.1111111111111112E-4 0.004230769230769231 0.0
1.1111111111111112E-4 0.004615384615384615 0.0
1.1111111111111112E-4 0.005 0.0
1.1111111111111112E-4 0.005111111111111111 0.0
1.1111111111111112E-4 0.005222222222222223 0.0
1.1111111111111112E-4 0.005333333333333333 0.0
1.1111111111111112E-4 0.0054444444444444445 0.0
1.1111111111111112E-4 0.005555555555555556 0.0
1.1111111111111112E-4 0.005666666666666667 0.0
1.1111111111111112E-4 0.0057777777777777775 0.0
1.1111111111111112E-4 0.005888888888888889 0.0
1.1111111111111112E-4 0.006 0.0
1.1111111111111112E-4 0.01711111111111111 0.0
1.1111111111111112E-4 0.028222222222222225 0.0
1.1111111111111112E-4 0.03933333333333333 0.0
1.1111111111111112E-4 0.050444444444444445 0.0
1.1111111111111112E-4 0.06155555555555556 0.0
1.1111111111111112E-4 0.07266666666666667 0.0
1.1111111111111112E-4 0.08377777777777778 0.0
1.1111111111111112E-4 0.0948888888888889 0.0
1.1111111111111112E-4 0.10600000000000001 0.0
1.1111111111111112E-4 0.10611111111111113 0.0
1.1111111111111112E-4 0.10622222222222223 0.0
1.1111111111111112E-4 0.10633333333333335 0.0
1.1111111111111112E-4 0.10644444444444445 0.0
1.1111111111111112E-4 0.10655555555555557 0.0
1.1111111111111112E-4 0.10666666666666667 0.0
1.1111111111111112E-4 0.10677777777777779 0.0
1.1111111111111112E-4 0.1068888888888889 0.0
1.1111111111111112E-4 0.10700000000000001 0.0
2.2222222222222223E-4 0.0 0.0
2.2222222222222223E-4 3.846153846153846E-4 0.0
2.2222222222222223E-4 7.692307692307692E-4 0.0
2.2222222222222223E-4 0.0011538461538461537 0.0
2.2222222222222223E-4 0.0015384615384615385 0.0
2.2222222222222223E-4 0.0019230769230769232 0.0
2.2222222222222223E-4 0.0023076923076923075 0.0
2.2222222222222223E-4 0.002692307692307692 0.0
2.2222222222222223E-4 0.003076923076923077 0.0
2.2222222222222223E-4 0.0034615384615384616 0.0
2.2222222222222223E-4 0.0038461538461538464 0.0
2.2222222222222223E-4 0.004230769230769231 0.0
2.2222222222222223E-4 0.004615384615384615 0.0
2.2222222222222223E-4 0.005 0.0
2.2222222222222223E-4 0.005111111111111111 0.0
2.2222222222222223E-4 0.005222222222222223 0.0
2.2222222222222223E-4 0.005333333333333333 0.0
2.2222222222222223E-4 0.0054444444444444445 0.0
2.2222222222222223E-4 0.005555555555555556 0.0
2.2222222222222223E-4 0.005666666666666667 0.0
2.2222222222222223E-4 0.0057777777777777775 0.0
2.2222222222222223E-4 0.005888888888888889 0.0
2.2222222222222223E-4 0.006 0.0
2.2222222222222223E-4 0.01711111111111111 0.0
2.2222222222222223E-4 0.028222222222222225 0.0
2.2222222222222223E-4 0.03933333333333333 0.0
2.2222222222222223E-4 0.050444444444444445 0.0
2.2222222222222223E-4 0.06155555555555556 0.0
2.2222222222222223E-4 0.07266666666666667 0.0
2.2222222222222223E-4 0.08377777777777778 0.0
2.2222222222222223E-4 0.0948888888888889 0.0
2.2222222222222223E-4 0.10600000000000001 0.0
2.2222222222222223E-4 0.10611111111111113 0.0
2.2222222222222223E-4 0.10622222222222223 0.0
2.2222222222222223E-4 0.10633333333333335 0.0
2.2222222222222223E-4 0.10644444444444445 0.0
2.2222222222222223E-4 0.10655555555555557 0.0
2.2222222222222223E-4 0.10666666666666667 0.0
2.2222222222222223E-4 0.10677777777777779 0.0
2.2222222222222223E-4 0.1068888888888889 0.0
2.2222222222222223E-4 0.10700000000000001 0.0
3.333333333333334E-4 0.0 0.0
3.333333333333334E-4 3.846153846153846E-4 0.0
3.333333333333334E-4 7.692307692307692E-4 0.0
3.333333333333334E-4 0.0011538461538461537 0.0
3.333333333333334E-4 0.0015384615384615385 0.0
3.333333333333334E-4 0.0019230769230769232 0.0
3.333333333333334E-4 0.0023076923076923075 0.0
3.333333333333334E-4 0.002692307692307692 0.0
3.333333333333334E-4 0.003076923076923077 0.0
3.333333333333334E-4 0.0034615384615384616 0.0
3.333333333333334E-4 0.0038461538461538464 0.0
3.333333333333334E-4 0.004230769230769231 0.0
3.333333333333334E-4 0.004615384615384615 0.0
3.333333333333334E-4 0.005 0.0
3.333333333333334E-4 0.005111111111111111 0.0
3.333333333333334E-4 0.005222222222222223 0.0
3.333333333333334E-4 0.005333333333333333 0.0
3.333333333333334E-4 0.0054444444444444445 0.0
3.333333333333334E-4 0.005555555555555556 0.0
3.333333333333334E-4 0.005666666666666667 0.0
3.333333333333334E-4 0.0057777777777777775 0.0
3.333333333333334E-4 0.005888888888888889 0.0
3.333333333333334E-4 0.006 0.0
3.333333333333334E-4 0.01711111111111111 0.0
3.333333333333334E-4 0.028222222222222225 0.0
3.333333333333334E-4 0.03933333333333333 0.0
3.333333333333334E-4 0.050444444444444445 0.0
3.333333333333334E-4 0.06155555555555556 0.0
3.333333333333334E-4 0.07266666666666667 0.0
3.333333333333334E-4 0.08377777777777778 0.0
3.333333333333334E-4 0.0948888888888889 0.0
3.333333333333334E-4 0.10600000000000001 0.0
3.333333333333334E-4 0.10611111111111113 0.0
3.333333333333334E-4 0.10622222222222223 0.0
3.333333333333334E-4 0.10633333333333335 0.0
3.333333333333334E-4 0.10644444444444445 0.0
3.333333333333334E-4 0.10655555555555557 0.0
3.333333333333334E-4 0.10666666666666667 0.0
3.333333333333334E-4 0.10677777777777779 0.0
3.333333333333334E-4 0.1068888888888889 0.0
3.333333333333334E-4 0.10700000000000001 0.0
4.4444444444444447E-4 0.0 0.0
4.4444444444444447E-4 3.846153846153846E-4 0.0
4.4444444444444447E-4 7.692307692307692E-4 0.0
4.4444444444444447E-4 0.0011538461538461537 0.0
4.4444444444444447E-4 0.0015384615384615385 0.0
4.4444444444444447E-4 0.0019230769230769232 0.0
4.4444444444444447E-4 0.0023076923076923075 0.0
4.4444444444444447E-4 0.002692307692307692 0.0
4.4444444444444447E-4 0.003076923076923077 0.0
4.4444444444444447E-4 0.0034615384615384616 0.0
4.4444444444444447E-4 0.0038461538461538464 0.0
4.4444444444444447E-4 0.004230769230769231 0.0
4.4444444444444447E-4 0.004615384615384615 0.0
4.4444444444444447E-4 0.005 0.0
4.4444444444444447E-4 0.005111111111111111 0.0
4.4444444444444447E-4 0.005222222222222223 0.0
4.4444444444444447E-4 0.005333333333333333 0.0
4.4444444444444447E-4 0.0054444444444444445 0.0
4.4444444444444447E-4 0.005555555555555556 0.0
4.4444444444444447E-4 0.005666666666666667 0.0
4.4444444444444447E-4 0.0057777777777777775 0.0
4.4444444444444447E-4 0.005888888888888889 0.0
4.4444444444444447E-4 0.006 0.0
4.4444444444444447E-4 0.01711111111111111 0.0
4.4444444444444447E-4 0.028222222222222225 0.0
4.4444444444444447E-4 0.03933333333333333 0.0
4.4444444444444447E-4 0.050444444444444445 0.0
4.4444444444444447E-4 0.06155555555555556 0.0
4.4444444444444447E-4 0.07266666666666667 0.0
4.4444444444444447E-4 0.08377777777777778 0.0
4.4444444444444447E-4 0.0948888888888889 0.0
4.4444444444444447E-4 0.10600000000000001 0.0
4.4444444444444447E-4 0.10611111111111113 0.0
4.4444444444444447E-4 0.10622222222222223 0.0
4.4444444444444447E-4 0.10633333333333335 0.0
4.4444444444444447E-4 0.10644444444444445 0.0
4.4444444444444447E-4 0.10655555555555557 0.0
4.4444444444444447E-4 0.10666666666666667 0.0
4.4444444444444447E-4 0.10677777777777779 0.0
4.4444444444444447E-4 0.1068888888888889 0.0
4.4444444444444447E-4 0.10700000000000001 0.0
5.555555555555556E-4 0.0 0.0
5.555555555555556E-4 3.846153846153846E-4 0.0
5.555555555555556E-4 7.692307692307692E-4 0.0
5.555555555555556E-4 0.0011538461538461537 0.0
5.555555555555556E-4 0.0015384615384615385 0.0
5.555555555555556E-4 0.0019230769230769232 0.0
5.555555555555556E-4 0.0023076923076923075 0.0
5.555555555555556E-4 0.002692307692307692 0.0
5.555555555555556E-4 0.003076923076923077 0.0
5.555555555555556E-4 0.0034615384615384616 0.0
5.555555555555556E-4 0.0038461538461538464 0.0
5.555555555555556E-4 0.004230769230769231 0.0
5.555555555555556E-4 0.004615384615384615 0.0
5.555555555555556E-4 0.005 0.0
5.555555555555556E-4 0.005111111111111111 0.0
5.555555555555556E-4 0.005222222222222223 0.0
5.555555555555556E-4 0.005333333333333333 0.0
5.555555555555556E-4 0.0054444444444444445 0.0
5.555555555555556E-4 0.005555555555555556 0.0
5.555555555555556E-4 0.005666666666666667 0.0
5.555555555555556E-4 0.0057777777777777775 0.0
5.555555555555556E-4 0.005888888888888889 0.0
5.555555555555556E-4 0.006 0.0
5.555555555555556E-4 0.01711111111111111 0.0
5.555555555555556E-4 0.028222222222222225 0.0
5.555555555555556E-4 0.03933333333333333 0.0
5.555555555555556E-4 0.050444444444444445 0.0
5.555555555555556E-4 0.06155555555555556 0.0
[...]
POINT_DATA 1353
SCALARS Temperatura float 1
LOOKUP_TABLE default
82.00210342119622
81.86551336170211
81.72768529652923
81.58858256109028
81.44816106984652
81.30636096328503
81.16310078085918
81.01826729805
80.87169765070581
80.72313983744098
80.57219578873082
80.41810032820396
80.25973377800507
80.09196244877074
79.91650221413163
79.74706783198886
79.57894339772943
79.4111763685241
79.24308912449474
79.07415042605504
78.90388333733173
78.73183621375557
78.55757261333471
58.64332261066387
58.43577239222039
58.471471707795516
58.462697420703506
58.4649769985627
58.46390007327233
58.466326474298796
58.454236022717204
57.49590539621569
57.48766565356297
57.47954164817089
57.47151740443325
57.463577883098225
57.45570963063763
57.447901250568194
57.440143702780446
57.43243046581521
57.42475760854912
82.00586752162783
81.869271488924
81.73143649396062
81.59232731124872
81.45189991514148
81.31009471037846
81.16683056809183
81.02199514711415
80.87542621885851
80.7268777213514
80.57594300627784
80.42193224300448
80.26346460668394
80.09710004055752
79.92755541777305
79.75875511653365
79.5910504040452
79.4235551386488
79.25568984205653
79.08695111597699
78.91687382053621
78.74500989646585
78.57092237510325
58.649345006951314
58.444183079277174
58.4792625485
58.47065026076027
58.47288571716641
58.47182742467722
58.474221451105784
58.46224653818782
57.50355909287647
57.49532586420717
57.487208311743196
57.4791900467636
57.471255696426454
57.463391570609566
57.455586127750294
57.447830253394145
57.440117396511
57.43244361833503
82.00977971785068
81.8731807414454
81.73534155772484
81.59622953132457
81.4558011352307
81.31399746379985
81.17073853252823
81.02591405616445
80.87936611154701
80.73085610869175
80.57999520099416
80.4261307004426
80.26791788731293
80.10322926647349
79.93644940268449
79.7696923582638
79.6030952226025
79.43643310362226
79.26927894669194
79.10119981272166
78.9317589214596
78.76051615001195
78.5870310576966
58.651603189013066
58.45369659240893
58.486899769393844
58.478777819336784
58.48087972287727
58.47987788089497
58.482173669322954
58.47055057283901
57.511184060813726
57.50297421529356
57.49487977106401
57.486883062509115
57.4789677051859
57.47111931347484
57.46332593997337
57.455578279770805
57.44786972008598
57.44019631620869
82.01384104958504
81.87724102111238
81.73940038672345
81.60028907144094
81.45986452530803
81.31806894314488
81.17482418727415
81.03002339427469
80.88351542409758
80.73507429186
80.58434047668999
80.4307050246021
80.27302237254058
80.10993608243218
79.94526465213121
79.78037766664723
79.61530635112415
79.44990700223633
79.28389727939421
79.11691363807732
78.9485503012495
78.77837200722747
78.60592619977486
58.65008598777178
58.46431753063281
58.49438175430817
58.48708067089576
58.48895883826992
58.48805159268276
58.490182925849595
58.47914864783373
57.518779168471696
57.510611053672896
57.50255769790812
57.494599151066154
57.486717291280165
57.47889661771993
57.47112460433663
57.46339173532371
57.4556913803775
57.44801963715599
82.0180520341426
81.88145229388144
81.74361278440182
81.60450567801122
81.46408974451515
81.32230866475882
81.17908678761644
81.03432190168262
80.88787184507711
80.73952836951293
80.58896805524283
80.4356501439446
80.27866763520291
80.11712072789769
79.95434509025075
79.79128203945973
79.62790162894329
79.4640771973575
79.29958169920651
79.13410225010168
78.96725531497997
78.79859974502159
78.62765380733956
58.64477516029894
58.476053450884386
58.50170581754515
58.49555975322493
58.497122754359445
58.496348796233995
58.498248869650176
58.488041608248494
57.52634247427785
57.5182371546944
57.510245246726555
57.502343224818794
57.494510442766355
57.48672998381134
57.47898876948092
57.47127724104414
57.46358893059172
57.4559201028108
82.0224128757972
81.88581447433208
81.74797847824102
81.60887899151857
81.46847631828143
81.32671596133966
81.1835253139865
81.03880784784518
80.89243236216362
80.744212377843
80.59386701187972
80.44094411872148
80.28476541014506
80.12472955921038
79.96379374631964
79.80257170080706
79.64101093339596
79.47899559706129
79.31633254863348
79.1527435485945
78.98785914709458
78.82121736921134
78.65227931179838
58.63564511684754
58.48891494763665
58.50886818004063
58.50421637483484
58.505371027773045
58.50476981601673
58.506370993909066
58.497230650538995
57.53387112703342
57.52585412409759
57.51794776583385
57.51012315960149
57.5023563390417
57.494629008405404
57.48692796897152
57.47924410545499
57.471571480447814
57.463906745792215
82.02692356444857
81.89032738504805
81.7524971173795
81.61340854928434
81.47302364387356
81.33128999543634
81.18813849238771
81.04347911145197
80.89719322244962
80.74911912268469
80.59902429972813
80.44655709561931
80.29124545235919
80.13271409332441
79.97361972676761
79.81428252052898
79.65465341447599
79.494638869161
79.33408399418938
79.17275275197098
79.01029621230651
78.84622152679681
78.67988944427393
58.62266239566274
58.5029158027194
58.515863925695136
58.51305222811384
58.513703075912034
58.51331506945599
58.51454862310238
58.506717368040945
57.541361200319365
57.53346527105772
57.52567423306659
57.517951131222105
57.51026825062149
57.50260680706105
57.49495473996523
57.487304269192286
57.479650554318454
57.47199094197426
82.03158392604678
81.89499074474804
81.75716826701186
81.61809378867032
81.4777309977173
81.33602977409225
81.19292482854408
81.04833323481246
80.90215006834681
80.75424048067984
80.60442466291806
80.45245637647074
80.29804859193545
80.1410217838099
79.98378471605893
79.82637521592235
79.66876624268767
79.51090177937368
79.35268199836844
79.19394042801433
79.03439972004149
78.87355080304042
78.71059581871918
58.60578467263143
58.51807326256248
58.52268692247869
58.52206941243534
58.522118168759256
58.521985074627956
58.522780891675
58.516503826536315
57.548807416275594
57.54107771477134
57.5334401262572
57.5258460505752
57.51826454348168
57.51068032392443
57.503084579667835
57.49547209335994
57.487839805779764
57.480186104417086
82.03639365110084
81.89980416739984
81.7619914044089
81.6229340501702
81.48259754373954
81.3409341663597
81.19788264478713
81.05336748940401
80.90729810161018
80.75956761577841
80.61005126259927
80.45860875183632
80.30512202527194
80.14959505044668
79.99422188554266
79.83876300771607
79.68322578351477
79.52760493535396
79.3718745969258
79.21597424743383
79.05977553485967
78.90300190513894
78.74454192940627
58.58495884766925
58.53440856592115
58.529329675221675
58.53127047621791
58.53061541450907
58.530780463221994
58.53106670814885
58.52659269224597
57.55620267576812
57.54870578698613
57.54127660588355
57.53383575536211
57.52636923884095
57.51887021116526
57.51133558163736
57.50376391144917
57.496154543828226
57.48850720434877
82.04135231283227
81.90476716545295
81.76696591712906
81.6279285805413
81.48762234246487
81.34600192266412
81.20301011884598
81.05857895226718
80.91263224515734
80.76509123992965
80.61588642531851
80.4649814599746
80.31241666378047
80.15837285177487
80.0048477897505
79.8513302579409
79.6978677774058
79.54451267694049
79.39132427122048
79.2383721010523
79.08574101052311
78.93353976483685
60.690076797158746
60.690076797158746
60.690076797158746
60.690076797158746
60.690076797158746
60.690076797158746
60.690076797158746
60.690076797158746
60.690076797158746
60.690076797158746
57.5564292426409
57.54923247429892
57.54195729506883
57.53461125038091
57.52719996474646
57.5197276317142
57.512197302207
57.50461105754949
57.49697011362228
82.86703781689205
82.7319787772403
82.5984280796294
82.46640251450886
82.33592992947338
82.20704937055878
82.07981126857013
81.9542775596972
81.83052151638934
81.70862685091512
81.58868522618184
81.47079055480663
81.35502800009381
81.24145732011353
81.12995692466541
81.01869810721152
80.90767875370766
80.79689552894627
80.68634328312493
80.57601417171875
80.46589628003606
80.3559712943165
60.690076797158746
60.690076797158746
60.690076797158746
60.690076797158746
60.690076797158746
60.690076797158746
60.690076797158746
60.690076797158746
60.690076797158746
60.690076797158746
58.559546803876
58.549286648754745
58.53935142138315
58.52973820702502
58.52044473767488
58.51146925860278
58.50281044944356
58.4944673766115
58.48643946454348
83.41443332508001
83.27913903386407
83.1446492886107
83.01095782738237
82.87805400499656
82.74592263587556
82.61454377540788
82.48389246771242
82.35393851799185
82.22464640567205
82.09597557164587
81.96788152064768
81.84031831648164
81.71324260270403
81.58739629312191
81.46164315763419
81.33598088125186
81.21040743989782
81.08492125886261
80.95952144861613
80.83420817414904
80.70898328103726
60.690076797158746
60.690076797158746
60.690076797158746
60.690076797158746
60.690076797158746
60.690076797158746
60.690076797158746
60.690076797158746
60.690076797158746
60.690076797158746
58.57202755005666
58.56375544005164
58.55553379343418
58.54736376273267
58.53924626399046
58.53118201339146
58.52317154907938
58.5152152444174
58.50731331605196
83.70252226520618
83.56725536871593
83.4327318009276
83.29895348974951
83.16592359892087
83.03364661019883
82.90212843920503
82.7713765786157
82.64140025449171
82.51221056601382
82.38382054707583
82.25624503122089
82.12950016192147
82.00360250487682
81.8791400455445
81.75480917809394
81.63061112708627
81.50654705152682
81.38261800336251
81.25882486512114
81.13516825156692
81.0116483422458
60.690076797158746
60.690076797158746
60.690076797158746
60.690076797158746
60.690076797158746
60.690076797158746
60.690076797158746
60.690076797158746
60.690076797158746
60.690076797158746
58.571929706129154
58.563153556755005
58.55449865960984
58.54596457729104
58.53755095196453
58.529257495220435
58.521083981965674
58.51303024667264
58.50509618107848
83.86475946637958
83.7294907874816
83.59489423344056
83.46096937596698
83.32771538732969
83.1951310068402
83.0632144932071
82.9319635639273
82.80137532486212
82.67144619722794
82.54217185778832
82.41354722356431
82.28556652363672
82.1582234710277
82.03220496249065
81.90629693334273
81.78049884879547
81.65481018682125
81.5292304488198
81.40375917590589
81.2783959748913
81.15314056287195
60.690076797158746
60.690076797158746
60.690076797158746
60.690076797158746
60.690076797158746
60.690076797158746
60.690076797158746
60.690076797158746
60.690076797158746
60.690076797158746
58.571930521296025
58.56328603563523
58.554743991629884
58.546304506069745
58.53796767002092
58.52973355165907
58.52160219799721
58.51357363596033
58.50564787305102
83.95139459816029
83.81612473548323
83.68148914010993
83.54748803409872
83.41412170827087
83.28139053436337
83.1492949824433
83.01783564347704
82.88701325647219
82.75682873855962
82.62728321409979
82.49837803467723
82.3701147786683
82.2424952267533
82.11620884164765
81.99003490789582
81.86397360159413
81.73802509649909
81.6121895613368
81.48646715559212
81.36085802267635
81.23536227806585
60.690076797158746
60.690076797158746
60.690076797158746
60.690076797158746
60.690076797158746
60.690076797158746
60.690076797158746
60.690076797158746
60.690076797158746
60.690076797158746
58.57194246284264
58.563263469272854
58.554691932345264
58.54622778652809
58.53787097429262
58.52962144531226
58.52147915596699
58.51344406903076
58.50551615347575
83.99375510268344
83.85848553600735
83.72383332148155
83.58979852881174
83.45638118659512
83.32358127797664
83.19139873437271
83.05983342720778
82.92888515771851
82.79855364515667
82.66883851435657
82.53973928483836
82.41125536455795
82.28338604928989
82.15683508277789
82.03039369231092
81.90406181471236
81.77783938675516
81.65172634585801
81.52572263121756
81.39982818569244
81.27404295912952
60.690076797158746
60.690076797158746
60.690076797158746
60.690076797158746
60.690076797158746
60.690076797158746
60.690076797158746
60.690076797158746
60.690076797158746
60.690076797158746
58.571936388188945
58.563266607801076
58.55470292140995
58.54624532253116
58.537893801945984
58.529648347944445
58.52150894647823
58.51347558125872
58.50554823381909
84.00639494001267
83.87112513013038
83.73646699240433
83.60242064443135
83.46898619980514
83.33616377062026
83.20395347111436
83.0723554225141
82.94136975910806
82.81099663544406
82.68123623423998
82.55208877399949
82.42355451484559
82.29563376212481
82.16903159393392
82.04253911505184
81.91615636651608
81.78988338935996
81.66372022429793
81.5376669111929
81.41172348814634
81.2858899898656
60.690076797158746
60.690076797158746
60.690076797158746
60.690076797158746
60.690076797158746
60.690076797158746
60.690076797158746
60.690076797158746
60.690076797158746
60.690076797158746
58.57193913443373
58.563266345808174
58.55470010464997
58.54624038145069
58.53788714810576
58.529640377786755
58.52150004486003
58.5134661248341
58.5055385943259
83.99375510268325
83.85848553600714
83.7238333214813
83.58979852881141
83.45638118659463
83.32358127797592
83.19139873437183
83.0598334272068
82.92888515771743
82.7985536451554
82.66883851435506
82.53973928483657
82.41125536455587
82.28338604928753
82.15683508277526
82.03039369230804
81.90406181470928
81.77783938675188
81.65172634585454
81.52572263121398
81.39982818568879
81.27404295912581
60.690076797158746
60.690076797158746
60.690076797158746
60.690076797158746
60.690076797158746
60.690076797158746
60.690076797158746
60.690076797158746
60.690076797158746
60.690076797158746
58.57193638818331
58.563266607795434
58.5547029214043
58.5462453225255
58.5378938019403
58.52964834793871
58.521508946472466
58.51347558125295
58.50554823381333
83.951394598164
83.81612473548694
83.68148914011367
83.54748803410251
83.41412170827472
83.2813905343673
83.14929498244726
83.01783564348099
82.88701325647608
82.75682873856353
82.6272832141038
82.49837803468135
82.37011477867253
82.2424952267577
82.1162088416522
81.9900349079005
81.86397360159893
81.73802509650406
81.61218956134186
81.48646715559723
81.36085802268144
81.23536227807092
60.690076797158746
60.690076797158746
60.690076797158746
60.690076797158746
60.690076797158746
60.690076797158746
60.690076797158746
60.690076797158746
60.690076797158746
60.690076797158746
58.57194246282498
58.563263469255105
58.554691932327415
58.54622778651014
58.53787097427457
58.52962144529414
58.521479155948825
58.513444069012564
58.505516153457556
83.86475946638564
83.72949078748766
83.59489423344668
83.46096937597315
83.32771538733584
83.19513100684622
83.0632144932131
82.93196356393327
82.80137532486803
82.67144619723368
82.5421718577938
82.4135472235695
82.2855665236416
82.15822347103226
82.03220496249496
81.90629693334682
81.78049884879943
81.65481018682507
81.52923044882354
81.40375917590956
81.27839597489493
81.15314056287556
60.690076797158746
60.690076797158746
60.690076797158746
60.690076797158746
60.690076797158746
60.690076797158746
60.690076797158746
60.690076797158746
60.690076797158746
60.690076797158746
58.571930521294725
58.56328603563393
58.5547439916286
58.54630450606848
58.53796767001968
58.5297335516579
58.52160219799605
58.51357363595916
58.50564787304986
83.70252226522005
83.56725536872979
83.43273180094144
83.2989534897633
83.1659235989346
83.03364661021254
82.90212843921869
82.77137657862933
82.64140025450534
82.51221056602748
82.38382054708956
82.25624503123467
82.12950016193527
82.00360250489062
81.87914004555829
81.7548091781077
81.63061112709997
81.50654705154037
81.38261800337598
81.2588248651345
81.13516825158014
81.01164834225888
60.690076797158746
60.690076797158746
60.690076797158746
60.690076797158746
60.690076797158746
60.690076797158746
60.690076797158746
60.690076797158746
60.690076797158746
60.690076797158746
58.57192970612639
58.56315355675222
58.554498659607034
58.545964577288224
58.5375509519617
58.52925749521758
58.521083981962825
58.51303024666981
58.50509618107565
83.4144333250974
83.27913903388149
83.14464928862819
83.01095782739995
82.87805400501425
82.74592263589334
82.61454377542577
82.4838924677304
82.3539385180099
82.22464640569017
82.09597557166404
81.96788152066594
81.84031831650003
81.71324260272259
81.58739629314067
81.46164315765313
81.33598088127098
81.21040743991713
81.08492125888205
80.95952144863568
80.83420817416865
80.70898328105687
60.690076797158746
60.690076797158746
60.690076797158746
60.690076797158746
60.690076797158746
60.690076797158746
60.690076797158746
60.690076797158746
60.690076797158746
60.690076797158746
58.572027550045064
58.56375544003997
58.55553379342246
58.547363762720906
58.539246263978676
58.531182013379684
58.52317154906763
58.51521524440569
58.50731331604026
82.86703781689631
82.73197877724455
82.59842807963368
82.46640251451318
82.33592992947769
82.20704937056304
82.07981126857432
81.95427755970131
81.83052151639343
81.7086268509192
81.58868522618594
81.47079055481073
81.35502800009793
81.24145732011765
81.12995692466947
81.01869810721553
80.9076787537116
80.79689552895007
80.6863432831287
80.57601417172246
80.46589628003964
80.35597129432001
60.690076797158746
60.690076797158746
60.690076797158746
60.690076797158746
60.690076797158746
60.690076797158746
60.690076797158746
60.690076797158746
60.690076797158746
60.690076797158746
58.559546803877076
58.54928664875581
58.539351421384204
58.52973820702608
58.52044473767591
58.51146925860375
58.50281044944446
58.494467376612356
58.48643946454431
82.0413523128327
81.90476716545339
81.76696591712944
81.62792858054159
81.48762234246516
81.34600192266443
81.20301011884638
81.05857895226764
80.91263224515791
80.76509123993029
80.61588642531922
80.46498145997538
80.3124166637813
80.15837285177572
80.00484778975144
79.85133025794192
79.69786777740693
79.54451267694176
79.3913242712218
79.23837210105368
79.08574101052454
78.93353976483834
60.690076797158746
60.690076797158746
60.690076797158746
60.690076797158746
60.690076797158746
60.690076797158746
60.690076797158746
60.690076797158746
60.690076797158746
60.690076797158746
57.556429242632035
57.54923247429012
57.541957295060115
57.534611250372215
57.527199964737804
57.51972763170558
57.51219730219846
57.50461105754098
57.49697011361378
82.03639365110133
81.89980416740028
81.76199140440926
81.62293405017044
81.4825975437398
81.34093416636001
81.19788264478755
81.05336748940454
80.9072981016108
80.7595676157791
80.61005126259997
80.45860875183723
80.30512202527291
80.14959505044763
79.9942218855437
79.83876300771713
79.68322578351594
79.52760493535517
79.37187459692711
79.21597424743517
79.05977553486106
78.90300190514043
78.74454192940775
58.58495884767602
58.534408565946
58.52932967523077
58.53127047622676
58.53061541454369
58.5307804632301
58.53106670814756
58.52659269224768
57.55620267575922
57.548705786977216
57.54127660587467
57.533835755353294
57.52636923883216
57.51887021115651
57.51133558162865
57.50376391144049
57.49615454381955
57.48850720434014
82.03158392604733
81.89499074474848
81.7571682670122
81.61809378867065
81.47773099771754
81.33602977409254
81.19292482854446
81.04833323481307
80.9021500683475
80.75424048068062
80.60442466291866
80.45245637647169
80.29804859193652
80.14102178381093
79.98378471606001
79.82637521592349
79.66876624268882
79.5109017793749
79.35268199836972
79.19394042801564
79.03439972004284
78.87355080304181
78.71059581872066
58.60578467263831
58.51807326258748
58.52268692248771
58.522069412444274
58.522118168794016
58.52198507463606
58.52278089167372
58.51650382653792
57.54880741626662
57.54107771476239
57.53344012624829
57.525846050566294
57.51826454347284
57.5106803239156
57.50308457965907
57.49547209335119
57.48783980577102
57.480186104408304
82.0269235644491
81.89032738504855
81.75249711737989
81.61340854928463
81.47302364387384
81.33128999543663
81.18813849238809
81.04347911145258
80.89719322245035
80.74911912268554
80.59902429972881
80.44655709562034
80.29124545236033
80.13271409332553
79.97361972676875
79.81428252053011
79.65465341447712
79.4946388691622
79.33408399419064
79.17275275197228
79.01029621230784
78.84622152679815
78.67988944427528
58.62266239566978
58.502915802744525
58.515863925704146
58.51305222812295
58.51370307594697
58.51331506946414
58.51454862310102
58.506717368042594
57.54136120031034
57.533465271048726
57.52567423305762
57.51795113121316