# vtk DataFile Version 2.0
Niestacjonarne zagadnienie cieplne - ogrzewanie wody w garnku stalowym
ASCII
DATASET UNSTRUCTURED_GRID
POINTS 1353 float
0.0 0.0 0.0
0.0 3.846153846153846E-4 0.0
0.0 7.692307692307692E-4 0.0
0.0 0.0011538461538461537 0.0
0.0 0.0015384615384615385 0.0
0.0 0.0019230769230769232 0.0
0.0 0.0023076923076923075 0.0
0.0 0.002692307692307692 0.0
0.0 0.003076923076923077 0.0
0.0 0.0034615384615384616 0.0
0.0 0.0038461538461538464 0.0
0.0 0.004230769230769231 0.0
0.0 0.004615384615384615 0.0
0.0 0.005 0.0
0.0 0.005111111111111111 0.0
0.0 0.005222222222222223 0.0
0.0 0.005333333333333333 0.0
0.0 0.0054444444444444445 0.0
0.0 0.005555555555555556 0.0
0.0 0.005666666666666667 0.0
0.0 0.0057777777777777775 0.0
0.0 0.005888888888888889 0.0
0.0 0.006 0.0
0.0 0.01711111111111111 0.0
0.0 0.028222222222222225 0.0
0.0 0.03933333333333333 0.0
0.0 0.050444444444444445 0.0
0.0 0.06155555555555556 0.0
0.0 0.07266666666666667 0.0
0.0 0.08377777777777778 0.0
0.0 0.0948888888888889 0.0
0.0 0.10600000000000001 0.0
0.0 0.10611111111111113 0.0
0.0 0.10622222222222223 0.0
0.0 0.10633333333333335 0.0
0.0 0.10644444444444445 0.0
0.0 0.10655555555555557 0.0
0.0 0.10666666666666667 0.0
0.0 0.10677777777777779 0.0
0.0 0.1068888888888889 0.0
0.0 0.10700000000000001 0.0
1.1111111111111112E-4 0.0 0.0
1.1111111111111112E-4 3.846153846153846E-4 0.0
1.1111111111111112E-4 7.692307692307692E-4 0.0
1.1111111111111112E-4 0.0011538461538461537 0.0
1.1111111111111112E-4 0.0015384615384615385 0.0
1.1111111111111112E-4 0.0019230769230769232 0.0
1.1111111111111112E-4 0.0023076923076923075 0.0
1.1111111111111112E-4 0.002692307692307692 0.0
1.1111111111111112E-4 0.003076923076923077 0.0
1.1111111111111112E-4 0.0034615384615384616 0.0
1.1111111111111112E-4 0.0038461538461538464 0.0
1.1111111111111112E-4 0.004230769230769231 0.0
1.1111111111111112E-4 0.004615384615384615 0.0
1.1111111111111112E-4 0.005 0.0
1.1111111111111112E-4 0.005111111111111111 0.0
1.1111111111111112E-4 0.005222222222222223 0.0
1.1111111111111112E-4 0.005333333333333333 0.0
1.1111111111111112E-4 0.0054444444444444445 0.0
1.1111111111111112E-4 0.005555555555555556 0.0
1.1111111111111112E-4 0.005666666666666667 0.0
1.1111111111111112E-4 0.0057777777777777775 0.0
1.1111111111111112E-4 0.005888888888888889 0.0
1.1111111111111112E-4 0.006 0.0
1.1111111111111112E-4 0.01711111111111111 0.0
1.1111111111111112E-4 0.028222222222222225 0.0
1.1111111111111112E-4 0.03933333333333333 0.0
1.1111111111111112E-4 0.050444444444444445 0.0
1.1111111111111112E-4 0.06155555555555556 0.0
1.1111111111111112E-4 0.07266666666666667 0.0
1.1111111111111112E-4 0.08377777777777778 0.0
1.1111111111111112E-4 0.0948888888888889 0.0
1.1111111111111112E-4 0.10600000000000001 0.0
1.1111111111111112E-4 0.10611111111111113 0.0
1.1111111111111112E-4 0.10622222222222223 0.0
1.1111111111111112E-4 0.10633333333333335 0.0
1.1111111111111112E-4 0.10644444444444445 0.0
1.1111111111111112E-4 0.10655555555555557 0.0
1.1111111111111112E-4 0.10666666666666667 0.0
1.1111111111111112E-4 0.10677777777777779 0.0
1.1111111111111112E-4 0.1068888888888889 0.0
1.1111111111111112E-4 0.10700000000000001 0.0
2.2222222222222223E-4 0.0 0.0
2.2222222222222223E-4 3.846153846153846E-4 0.0
2.2222222222222223E-4 7.692307692307692E-4 0.0
2.2222222222222223E-4 0.0011538461538461537 0.0
2.2222222222222223E-4 0.0015384615384615385 0.0
2.2222222222222223E-4 0.0019230769230769232 0.0
2.2222222222222223E-4 0.0023076923076923075 0.0
2.2222222222222223E-4 0.002692307692307692 0.0
2.2222222222222223E-4 0.003076923076923077 0.0
2.2222222222222223E-4 0.0034615384615384616 0.0
2.2222222222222223E-4 0.0038461538461538464 0.0
2.2222222222222223E-4 0.004230769230769231 0.0
2.2222222222222223E-4 0.004615384615384615 0.0
2.2222222222222223E-4 0.005 0.0
2.2222222222222223E-4 0.005111111111111111 0.0
2.2222222222222223E-4 0.005222222222222223 0.0
2.2222222222222223E-4 0.005333333333333333 0.0
2.2222222222222223E-4 0.0054444444444444445 0.0
2.2222222222222223E-4 0.005555555555555556 0.0
2.2222222222222223E-4 0.005666666666666667 0.0
2.2222222222222223E-4 0.0057777777777777775 0.0
2.2222222222222223E-4 0.005888888888888889 0.0
2.2222222222222223E-4 0.006 0.0
2.2222222222222223E-4 0.01711111111111111 0.0
2.2222222222222223E-4 0.028222222222222225 0.0
2.2222222222222223E-4 0.03933333333333333 0.0
2.2222222222222223E-4 0.050444444444444445 0.0
2.2222222222222223E-4 0.06155555555555556 0.0
2.2222222222222223E-4 0.07266666666666667 0.0
2.2222222222222223E-4 0.08377777777777778 0.0
2.2222222222222223E-4 0.0948888888888889 0.0
2.2222222222222223E-4 0.10600000000000001 0.0
2.2222222222222223E-4 0.10611111111111113 0.0
2.2222222222222223E-4 0.10622222222222223 0.0
2.2222222222222223E-4 0.10633333333333335 0.0
2.2222222222222223E-4 0.10644444444444445 0.0
2.2222222222222223E-4 0.10655555555555557 0.0
2.2222222222222223E-4 0.10666666666666667 0.0
2.2222222222222223E-4 0.10677777777777779 0.0
2.2222222222222223E-4 0.1068888888888889 0.0
2.2222222222222223E-4 0.10700000000000001 0.0
3.333333333333334E-4 0.0 0.0
3.333333333333334E-4 3.846153846153846E-4 0.0
3.333333333333334E-4 7.692307692307692E-4 0.0
3.333333333333334E-4 0.0011538461538461537 0.0
3.333333333333334E-4 0.0015384615384615385 0.0
3.333333333333334E-4 0.0019230769230769232 0.0
3.333333333333334E-4 0.0023076923076923075 0.0
3.333333333333334E-4 0.002692307692307692 0.0
3.333333333333334E-4 0.003076923076923077 0.0
3.333333333333334E-4 0.0034615384615384616 0.0
3.333333333333334E-4 0.0038461538461538464 0.0
3.333333333333334E-4 0.004230769230769231 0.0
3.333333333333334E-4 0.004615384615384615 0.0
3.333333333333334E-4 0.005 0.0
3.333333333333334E-4 0.005111111111111111 0.0
3.333333333333334E-4 0.005222222222222223 0.0
3.333333333333334E-4 0.005333333333333333 0.0
3.333333333333334E-4 0.0054444444444444445 0.0
3.333333333333334E-4 0.005555555555555556 0.0
3.333333333333334E-4 0.005666666666666667 0.0
3.333333333333334E-4 0.0057777777777777775 0.0
3.333333333333334E-4 0.005888888888888889 0.0
3.333333333333334E-4 0.006 0.0
3.333333333333334E-4 0.01711111111111111 0.0
3.333333333333334E-4 0.028222222222222225 0.0
3.333333333333334E-4 0.03933333333333333 0.0
3.333333333333334E-4 0.050444444444444445 0.0
3.333333333333334E-4 0.06155555555555556 0.0
3.333333333333334E-4 0.07266666666666667 0.0
3.333333333333334E-4 0.08377777777777778 0.0
3.333333333333334E-4 0.0948888888888889 0.0
3.333333333333334E-4 0.10600000000000001 0.0
3.333333333333334E-4 0.10611111111111113 0.0
3.333333333333334E-4 0.10622222222222223 0.0
3.333333333333334E-4 0.10633333333333335 0.0
3.333333333333334E-4 0.10644444444444445 0.0
3.333333333333334E-4 0.10655555555555557 0.0
3.333333333333334E-4 0.10666666666666667 0.0
3.333333333333334E-4 0.10677777777777779 0.0
3.333333333333334E-4 0.1068888888888889 0.0
3.333333333333334E-4 0.10700000000000001 0.0
4.4444444444444447E-4 0.0 0.0
4.4444444444444447E-4 3.846153846153846E-4 0.0
4.4444444444444447E-4 7.692307692307692E-4 0.0
4.4444444444444447E-4 0.0011538461538461537 0.0
4.4444444444444447E-4 0.0015384615384615385 0.0
4.4444444444444447E-4 0.0019230769230769232 0.0
4.4444444444444447E-4 0.0023076923076923075 0.0
4.4444444444444447E-4 0.002692307692307692 0.0
4.4444444444444447E-4 0.003076923076923077 0.0
4.4444444444444447E-4 0.0034615384615384616 0.0
4.4444444444444447E-4 0.0038461538461538464 0.0
4.4444444444444447E-4 0.004230769230769231 0.0
4.4444444444444447E-4 0.004615384615384615 0.0
4.4444444444444447E-4 0.005 0.0
4.4444444444444447E-4 0.005111111111111111 0.0
4.4444444444444447E-4 0.005222222222222223 0.0
4.4444444444444447E-4 0.005333333333333333 0.0
4.4444444444444447E-4 0.0054444444444444445 0.0
4.4444444444444447E-4 0.005555555555555556 0.0
4.4444444444444447E-4 0.005666666666666667 0.0
4.4444444444444447E-4 0.0057777777777777775 0.0
4.4444444444444447E-4 0.005888888888888889 0.0
4.4444444444444447E-4 0.006 0.0
4.4444444444444447E-4 0.01711111111111111 0.0
4.4444444444444447E-4 0.028222222222222225 0.0
4.4444444444444447E-4 0.03933333333333333 0.0
4.4444444444444447E-4 0.050444444444444445 0.0
4.4444444444444447E-4 0.06155555555555556 0.0
4.4444444444444447E-4 0.07266666666666667 0.0
4.4444444444444447E-4 0.08377777777777778 0.0
4.4444444444444447E-4 0.0948888888888889 0.0
4.4444444444444447E-4 0.10600000000000001 0.0
4.4444444444444447E-4 0.10611111111111113 0.0
4.4444444444444447E-4 0.10622222222222223 0.0
4.4444444444444447E-4 0.10633333333333335 0.0
4.4444444444444447E-4 0.10644444444444445 0.0
4.4444444444444447E-4 0.10655555555555557 0.0
4.4444444444444447E-4 0.10666666666666667 0.0
4.4444444444444447E-4 0.10677777777777779 0.0
4.4444444444444447E-4 0.1068888888888889 0.0
4.4444444444444447E-4 0.10700000000000001 0.0
5.555555555555556E-4 0.0 0.0
5.555555555555556E-4 3.846153846153846E-4 0.0
5.555555555555556E-4 7.692307692307692E-4 0.0
5.555555555555556E-4 0.0011538461538461537 0.0
5.555555555555556E-4 0.0015384615384615385 0.0
5.555555555555556E-4 0.0019230769230769232 0.0
5.555555555555556E-4 0.0023076923076923075 0.0
5.555555555555556E-4 0.002692307692307692 0.0
5.555555555555556E-4 0.003076923076923077 0.0
5.555555555555556E-4 0.0034615384615384616 0.0
5.555555555555556E-4 0.0038461538461538464 0.0
5.555555555555556E-4 0.004230769230769231 0.0
5.555555555555556E-4 0.004615384615384615 0.0
5.555555555555556E-4 0.005 0.0
5.555555555555556E-4 0.005111111111111111 0.0
5.555555555555556E-4 0.005222222222222223 0.0
5.555555555555556E-4 0.005333333333333333 0.0
5.555555555555556E-4 0.0054444444444444445 0.0
5.555555555555556E-4 0.005555555555555556 0.0
5.555555555555556E-4 0.005666666666666667 0.0
5.555555555555556E-4 0.0057777777777777775 0.0
5.555555555555556E-4 0.005888888888888889 0.0
5.555555555555556E-4 0.006 0.0
5.555555555555556E-4 0.01711111111111111 0.0
5.555555555555556E-4 0.028222222222222225 0.0
5.555555555555556E-4 0.03933333333333333 0.0
5.555555555555556E-4 0.050444444444444445 0.0
5.555555555555556E-4 0.06155555555555556 0.0
[...]
POINT_DATA 1353
SCALARS Temperatura float 1
LOOKUP_TABLE default
43.356290038451114
43.21195285043222
43.06681034222321
42.92083028767648
42.77397637937716
42.62620075065953
42.4774398614767
42.327607869938966
42.17658504630037
42.02419381158683
41.870159179728724
41.71399222461431
41.55491994728923
41.39044563984254
41.222547068030266
41.056450514308565
40.89033232904912
40.72369751839513
40.55613579084089
40.38727513528238
40.216750086997685
40.04419444197306
39.86924271222018
19.63003031055285
19.416179323902657
19.45338727384038
19.444301722458608
19.44654426835123
19.445932830326985
19.446328690937268
19.445700851037312
19.360494469627348
19.360194142745897
19.359926728213875
19.359698369785804
19.359514812061384
19.35938117060265
19.35930176543129
19.359280015433043
19.359318381076175
19.359418338982913
43.3577425302029
43.213398847128914
43.06824879185358
42.922261561704495
42.775400877611766
42.627619064787645
42.47885281066084
42.329016787036835
42.17799186761676
42.02560332095519
41.87157456362212
41.715446304475336
41.5563583388311
41.392425183867196
41.22667873320374
41.06085810942337
40.89494519574205
40.72846965230764
40.561056496654956
40.39234312967474
40.221966734272065
40.049559749724814
39.87475298912645
19.628045916578444
19.41663302093365
19.453208664505095
19.444287848038563
19.446487208709204
19.445887856201573
19.446277448699185
19.445663264765024
19.36041418679462
19.360110600901173
19.35983999792536
19.359608668216982
19.3594224744628
19.359286615766504
19.359205463306044
19.359182462225707
19.35922008353234
19.359319806657016
43.35932060116909
43.21497333153866
43.06981810743378
42.92382667069881
42.77696314136277
42.629180339466956
42.48041569781424
42.3305852141932
42.179572419364064
42.02720742993208
41.87322430717351
41.71718545184942
41.55826015842324
41.395057786757555
41.230474926052715
41.065574038662994
40.900265347136944
40.73431721876735
40.567410375906604
40.399206102284545
40.229347164261895
40.05746081347238
39.88316570590574
19.622240311406312
19.418234451851426
19.452895866562375
19.44447370588135
19.446542350917102
19.445979582434102
19.446350186239584
19.445777216335742
19.36043500575613
19.36012159819249
19.35984138788857
19.359601118142656
19.35940700934292
19.359264505720496
19.359178121253937
19.35915136828484
19.35918673996461
19.359285718215794
43.36102531856457
43.21667623399798
43.07151822000855
42.92552550408774
42.778663022143164
42.630884373286676
42.48212820221081
42.33231269292747
42.18132562176857
42.02900515399077
41.875102790668656
41.71921032522301
41.56059485545062
41.39818833292398
41.23466299800231
41.07075768123723
40.90635266047353
40.74125145336142
40.5751896966946
40.407852284133995
40.23888586392832
40.06790546566764
39.8945055661238
19.61260299907845
19.420988073773554
19.45244730217498
19.44485986159366
19.446709548215114
19.446208089908026
19.446546920072503
19.4460426826471
19.360557244900612
19.360226927263696
19.359930220860626
19.35967467942372
19.359467136537447
19.359313428100716
19.35921827095121
19.359185252021945
19.359216871691252
19.359314597924186
43.362857246219804
43.21850756867892
43.07334898698134
42.9273578747758
42.7805002700001
42.632730823135475
42.483989813114384
42.334198388339075
42.18324999230333
42.03099390625702
41.877203921949594
41.72151475393659
41.56331484143594
41.401766752130044
41.239342361128756
41.076545609806665
40.91324690896266
40.749266323710444
40.58436629295616
40.41825062204032
40.25056515791291
40.08090220862769
39.908814056234505
19.599116806777904
19.42490121677048
19.45186034273718
19.44544723576784
19.44698853925046
19.446573494861457
19.44686766221749
19.446459598875165
19.36078144210831
19.36042615799445
19.36010522302636
19.359827459198016
19.35960058685646
19.359430934544708
19.359323411336298
19.359281620765447
19.35930800887337
19.35940398670886
43.36481665371103
43.22046731774769
43.075310211228896
42.92932351547288
42.78247453587132
42.634719213538986
42.48599982880262
42.33624115556848
42.185343561026606
42.03316994164106
41.879520759436645
41.724085043952854
41.566377428777955
41.40575310268193
41.244516455641254
41.082951508189986
40.92093775979845
40.758315634036244
40.594873447250606
40.43033405222795
40.264341257712445
40.09645249244361
39.92615069925676
19.581757533821165
19.429984184113717
19.451131279625635
19.44623711260833
19.447378945664546
19.447075948974618
19.44731242255187
19.44702784896097
19.361108390041995
19.36071848805287
19.360364265249235
19.360056446176422
19.35980389844592
19.359613418648415
19.359489954958335
19.35943696327699
19.359456708410644
19.359550468035227
43.36690361466924
43.22255539032343
43.077401638018586
42.93142208020776
42.78458537467646
42.63684894483991
42.488157370674905
42.33843958194231
42.18760388388873
42.035528706695985
41.882044917961395
41.72690337347992
41.56974369082247
41.41010353935048
41.25014505110883
41.08992731814352
40.9293541084565
40.76829808451599
40.60658547415864
40.443974332248885
40.28011898196944
40.11453527308224
39.94659527355299
19.56049333569473
19.436250426050005
19.450255274279186
19.44723115440573
19.447880268118677
19.447715639475
19.447881212768078
19.447747249667156
19.361539195336327
19.36110240316751
19.360703839063248
19.360357040495547
19.36007211628608
19.35985596869363
19.359713185369987
19.359646767980824
19.359658602667235
19.359749725791218
43.369118056771974
43.224771610086734
43.07962294854959
42.9336531460087
42.78683224946549
42.639119302474654
42.49046140376094
42.34079202304979
42.19002812442321
42.03806501274717
41.88476667055383
41.729949850101576
41.573376474877165
41.41476780482903
41.25616139965385
41.09738292303725
40.93837289807135
40.77905021617455
40.619298527655275
40.45894280357177
40.297703332542866
40.13507144528833
39.97025174881583
19.53528364094453
19.443716841462283
19.44922627299537
19.44843142576602
19.448491879791654
19.448492789204707
19.448574053124563
19.44861752352002
19.36207537917635
19.361574822557525
19.36111793057704
19.36072232611386
19.360398437331497
19.360152254915164
19.359987268987688
19.35990559520213
19.359908498328256
19.359996650595402
43.371459789753494
43.227115713789125
43.081973755000895
42.93601621420667
42.78921453629254
42.641529467835824
42.49291075940886
42.34329664519169
42.19261315014037
42.04077318859137
41.88767532213947
41.733203636641726
41.577239324291966
41.419689996581695
41.2624805102362
41.10519774153104
40.94782796640942
40.79034835642217
40.63271976394546
40.474872560001444
40.31667274486863
40.157841726525945
39.99725560572964
19.506077153201993
19.452404327706564
19.448036854138724
19.4498404362066
19.44921301529853
19.449407656217804
19.44939098576869
19.449638245982552
19.362719073999017
19.362127831011954
19.361596085226406
19.361142181311298
19.360773990070314
19.360494558834137
19.360305377721108
19.36020723223037
19.360200541546185
19.36028550705002
43.373928523010626
43.229587353822026
43.08445359767915
42.93851071161175
42.79173152957207
42.644078530212425
42.49550415949708
42.345951473362646
42.19535563145033
42.04364725558012
41.89075963973449
41.73664361955315
41.58129621498241
41.42481059891312
41.26900603733958
41.11323131235735
40.95752254447541
40.80192132441943
40.64647712039981
40.491250637258275
40.33631890755175
40.181783826721684
20.406205390397048
20.406205390397048
20.406205390397048
20.406205390397048
20.406205390397048
20.406205390397048
20.406205390397048
20.406205390397048
20.406205390397048
20.406205390397048
19.362743031559244
19.362120656375605
19.361603061216943
19.36118805167194
19.36087406542813
19.360659967864912
19.360544947526076
19.36052845461177
19.360610164309143
43.9224173080157
43.77929333611628
43.637595398744075
43.4973371451438
43.358541178865515
43.22123917962296
43.08547208791309
42.95129028209153
42.81875360567589
42.68793097059399
42.558898994681
42.43173862936143
42.30652808717248
42.18332994289082
42.062189947006885
41.94129491694037
41.82064381401034
41.70023419362825
41.58006155257515
41.46011841885233
41.34039297403926
41.220866747773314
20.406205390397048
20.406205390397048
20.406205390397048
20.406205390397048
20.406205390397048
20.406205390397048
20.406205390397048
20.406205390397048
20.406205390397048
20.406205390397048
19.45340470977122
19.452368039894793
19.451483807131005
19.450752455981018
19.450174277267475
19.449749463316948
19.449478136256896
19.44936036469685
19.44939617368489
44.295192315020394
44.15187948165636
44.00945509857103
43.867914159785556
43.72724812237553
43.58744477737027
43.448488063847634
43.310357843487
43.17302967189075
43.036474638676225
42.90065942135432
42.765546836061105
42.631097348674786
42.497272139954255
42.36480989925322
42.23246907304539
42.10024758509791
41.96814370451314
41.83615622009959
41.704284684330744
41.572529783462166
41.440893957602626
20.406205390397048
20.406205390397048
20.406205390397048
20.406205390397048
20.406205390397048
20.406205390397048
20.406205390397048
20.406205390397048
20.406205390397048
20.406205390397048
19.453881435781952
19.453056196548136
19.45235618729642
19.451781298248815
19.451331454274083
19.45100660002515
19.450806692307367
19.450731695577073
19.450781579254425
44.488495771574456
44.34520537920591
44.20277085156051
44.06119379455611
43.920476809285475
43.78062355901328
43.64163886529486
43.50352882956358
43.36630097166328
43.22996436734006
43.094529746973265
42.96000948011475
42.82641732029012
42.693767746253634
42.56266281538268
42.431713568454974
42.30092104692207
42.17028620976696
42.03980988758679
41.90949271787686
41.779335046281645
41.64933676052455
20.406205390397048
20.406205390397048
20.406205390397048
20.406205390397048
20.406205390397048
20.406205390397048
20.406205390397048
20.406205390397048
20.406205390397048
20.406205390397048
19.453850629817286
19.452970746684937
19.45222323938801
19.45160809260181
19.45112528337683
19.450774785131117
19.450556569699774
19.450470608542858
19.450516873465748
44.59714189253472
44.453850017321244
44.311365634791315
44.16968843981771
44.028817795603295
43.8887527064297
43.7494917784662
43.611033169182825
43.47337452709633
43.33651292602351
43.200444803281
43.06516592149556
42.93067138751283
42.796955772983445
42.664697074051865
42.53257729808991
42.40059597690062
42.268752659861626
42.13704692585409
42.00547840026728
41.874046781182344
41.74275188368906
20.406205390397048
20.406205390397048
20.406205390397048
20.406205390397048
20.406205390397048
20.406205390397048
20.406205390397048
20.406205390397048
20.406205390397048
20.406205390397048
19.453850645336495
19.452985006856615
19.45224985001355
19.45164514818633
19.451170876308506
19.45082700979824
19.45061352401008
19.45053039391254
19.45057759389619
44.654742829740506
44.51145005956101
44.36893942654778
44.22721115090308
44.0862654985274
43.946102790906416
43.806723419400335
43.66812786395988
43.53031671602466
43.39329070474734
43.25705072429987
43.12159785726047
42.986933385281596
42.85305877505642
42.72065101258264
42.5883843859414
42.45625902527915
42.32427505641861
42.19243259780061
42.06073175605066
41.929172619060274
41.79775524416408
20.406205390397048
20.406205390397048
20.406205390397048
20.406205390397048
20.406205390397048
20.406205390397048
20.406205390397048
20.406205390397048
20.406205390397048
20.406205390397048
19.45385177002149
19.4529823995188
19.452244015402936
19.451636590408608
19.45116009693265
19.450814507321304
19.450599794016973
19.450515929644144
19.450562887060446
44.68277693033176
44.53948440801356
44.396962924463224
44.25521257484244
44.114233409611714
43.97402543100809
43.83458858792161
43.695922769093926
43.55802779461643
43.42090340585872
43.284549254336014
43.14896489080275
43.014149756956506
42.88010318309328
42.74751240462211
42.61506062614307
42.48274777474699
42.35057377761898
42.21853856285489
42.086642060673086
41.954884205339916
41.82326493850291
20.406205390397048
20.406205390397048
20.406205390397048
20.406205390397048
20.406205390397048
20.406205390397048
20.406205390397048
20.406205390397048
20.406205390397048
20.406205390397048
19.453851077859923
19.45298270332752
19.452245178085565
19.451638476063028
19.451162571206936
19.450817437400843
19.450603048423428
19.45051937792438
19.450566399410167
44.69111433479544
44.5478216217438
44.4052961425541
44.26353803112529
44.122547406554425
43.9823243751829
43.84286903359065
43.70418147260766
43.56626178239619
43.429110058590716
43.29272640930338
43.15711096242026
43.02226387206455
42.88818532260983
42.75556317662688
42.62308021060934
42.49073643878
42.35853187465588
42.22646653067133
42.09454041760309
41.96275354363699
41.83110591272878
20.406205390397048
20.406205390397048
20.406205390397048
20.406205390397048
20.406205390397048
20.406205390397048
20.406205390397048
20.406205390397048
20.406205390397048
20.406205390397048
19.453851360483323
19.452982660885166
19.45224485619575
19.45163791958096
19.45116182416425
19.45081654306719
19.45060204942995
19.450518316423203
19.450565317255116
44.68277693033169
44.53948440801347
44.396962924463125
44.25521257484231
44.11423340961152
43.974025431007796
43.83458858792123
43.6959227690935
43.558027794615946
43.42090340585814
43.28454925433531
43.148964890801906
43.014149756955526
42.88010318309215
42.747512404620835
42.615060626141656
42.48274777474547
42.350573777617356
42.218538562853176
42.0866420606713
41.954884205338104
41.82326493850106
20.406205390397048
20.406205390397048
20.406205390397048
20.406205390397048
20.406205390397048
20.406205390397048
20.406205390397048
20.406205390397048
20.406205390397048
20.406205390397048
19.45385107785804
19.452982703325635
19.452245178083675
19.451638476061138
19.45116257120504
19.450817437398936
19.450603048421517
19.450519377922465
19.450566399408252
44.654742829742425
44.51145005956293
44.36893942654971
44.227211150905035
44.0862654985294
43.94610279090847
43.80672341940239
43.668127863961914
43.53031671602666
43.393290704749354
43.25705072430193
43.12159785726259
42.98693338528377
42.85305877505867
42.72065101258498
42.58838438594382
42.456259025281625
42.32427505642117
42.192432597803226
42.0607317560533
41.9291726190629
41.7977552441667
20.406205390397048
20.406205390397048
20.406205390397048
20.406205390397048
20.406205390397048
20.406205390397048
20.406205390397048
20.406205390397048
20.406205390397048
20.406205390397048
19.453851770015657
19.452982399512937
19.452244015397042
19.451636590402675
19.451160096926678
19.450814507315314
19.450599794010962
19.450515929638126
19.450562887054428
44.59714189253774
44.45385001732428
44.3113656347944
44.16968843982082
44.02881779560639
43.88875270643274
43.749491778469235
43.61103316918584
43.47337452709931
43.336512926026394
43.200444803283766
43.06516592149816
42.930671387515275
42.79695577298573
42.66469707405401
42.53257729809195
42.400595976902586
42.26875265986353
42.13704692585594
42.005478400269084
41.87404678118415
41.74275188369084
20.406205390397048
20.406205390397048
20.406205390397048
20.406205390397048
20.406205390397048
20.406205390397048
20.406205390397048
20.406205390397048
20.406205390397048
20.406205390397048
19.453850645336065
19.452985006856185
19.45224985001313
19.45164514818592
19.45117087630811
19.450827009797866
19.450613524009718
19.45053039391217
19.45057759389582
44.48849577158152
44.345205379212956
44.202770851567536
44.06119379456312
43.92047680929246
43.78062355902025
43.6416388653018
43.503528829570506
43.36630097167022
43.22996436734702
43.09452974698025
42.96000948012176
42.826417320297146
42.69376774626067
42.56266281538971
42.431713568462
42.300921046929055
42.170286209773856
42.03980988759365
41.909492717883666
41.77933504628837
41.6493367605312
20.406205390397048
20.406205390397048
20.406205390397048
20.406205390397048
20.406205390397048
20.406205390397048
20.406205390397048
20.406205390397048
20.406205390397048
20.406205390397048
19.45385062981641
19.452970746684056
19.452223239387123
19.451608092600917
19.45112528337593
19.45077478513021
19.45055656969887
19.450470608541956
19.450516873464846
44.295192315029276
44.15187948166525
44.00945509857997
43.86791415979454
43.72724812238456
43.58744477737935
43.44848806385677
43.310357843496185
43.17302967189997
43.036474638685476
42.900659421363606
42.765546836070435
42.63109734868418
42.49727213996374
42.36480989926281
42.23246907305507
42.10024758510769
41.96814370452302
41.83615622010952
41.704284684340735
41.572529783472206
41.440893957612666
20.406205390397048
20.406205390397048
20.406205390397048
20.406205390397048
20.406205390397048
20.406205390397048
20.406205390397048
20.406205390397048
20.406205390397048
20.406205390397048
19.45388143577811
19.453056196544267
19.452356187292526
19.451781298244903
19.451331454270168
19.45100660002123
19.450806692303455
19.450731695573175
19.45078157925053
43.92241730801772
43.77929333611831
43.63759539874611
43.49733714514585
43.358541178867554
43.22123917962498
43.08547208791506
42.95129028209347
42.818753605677806
42.68793097059591
42.558898994682934
42.431738629363366
42.306528087174414
42.18332994289274
42.062189947008775
41.94129491694225
41.820643814012186
41.700234193630024
41.58006155257692
41.46011841885409
41.34039297404096
41.22086674777498
20.406205390397048
20.406205390397048
20.406205390397048
20.406205390397048
20.406205390397048
20.406205390397048
20.406205390397048
20.406205390397048
20.406205390397048
20.406205390397048
19.453404709771565
19.452368039895138
19.45148380713135
19.450752455981366
19.450174277267816
19.44974946331727
19.4494781362572
19.449360364697142
19.44939617368517
43.37392852301071
43.22958735382212
43.084453597679236
42.9385107116118
42.7917315295721
42.64407853021246
42.49550415949719
42.34595147336278
42.195355631450525
42.04364725558035
41.89075963973475
41.736643619553455
41.581296214982764
41.42481059891349
41.26900603733999
41.113231312357804
40.95752254447591
40.80192132442002
40.64647712040042
40.491250637258915
40.33631890755241
40.18178382672236
20.406205390397048
20.406205390397048
20.406205390397048
20.406205390397048
20.406205390397048
20.406205390397048
20.406205390397048
20.406205390397048
20.406205390397048
20.406205390397048
19.362743031556292
19.36212065637267
19.361603061214034
19.36118805166904
19.36087406542524
19.360659967862038
19.36054494752322
19.360528454608914
19.360610164306287
43.37145978975362
43.2271157137892
43.081973755000945
42.93601621420671
42.78921453629255
42.64152946783589
42.492910759408964
42.34329664519185
42.192613150140595
42.040773188591615
41.887675322139735
41.73320363664213
41.57723932429237
41.41968999658209
41.26248051023666
41.10519774153152
40.94782796640994
40.79034835642271
40.632719763946035
40.474872560002055
40.316672744869265
40.1578417265266
39.99725560573032
19.50607715320402
19.452404327714742
19.448036854141762
19.44984043620944
19.44921301530993
19.449407656220437
19.449390985768275
19.449638245982957
19.36271907399605
19.362127831008987
19.361596085223432
19.361142181308356
19.360773990067376
19.360494558831224
19.360305377718195
19.360207232227452
19.360200541543282
19.360285507047124
43.36911805677216
43.22477161008681
43.07962294854965
42.933653146008766
42.78683224946549
42.63911930247468
42.49046140376104
42.34079202304998
42.190028124423435
42.038065012747445
41.88476667055411
41.729949850102024
41.573376474877584
41.41476780482947
41.2561613996543
41.097382923037756
40.93837289807183
40.77905021617506
40.61929852765583
40.45894280357235
40.297703332543485
40.13507144528897
39.97025174881652
19.535283640946606
19.4437168414705
19.44922627299839
19.44843142576888
19.448491879803118
19.44849278920733
19.448574053124155
19.448617523520426
19.362075379173344
19.36157482255452
19.361117930574054
19.360722326110878
19.360398437328524
19.360152254912197
19.35998726898474
19.359905595199184
19.359908498325307
19.35999665059246
43.36690361466942
43.22255539032353
43.07740163801863
42.93142208020779
42.78458537467644
42.63684894483994
42.488157370675
42.338439581942545
42.187603883889
42.035528706696304
41.88204491796169
41.726903373480376
41.569743690822946