# vtk DataFile Version 2.0
Niestacjonarne zagadnienie cieplne - ogrzewanie wody w garnku stalowym
ASCII
DATASET UNSTRUCTURED_GRID
POINTS 1353 float
0.0 0.0 0.0
0.0 3.846153846153846E-4 0.0
0.0 7.692307692307692E-4 0.0
0.0 0.0011538461538461537 0.0
0.0 0.0015384615384615385 0.0
0.0 0.0019230769230769232 0.0
0.0 0.0023076923076923075 0.0
0.0 0.002692307692307692 0.0
0.0 0.003076923076923077 0.0
0.0 0.0034615384615384616 0.0
0.0 0.0038461538461538464 0.0
0.0 0.004230769230769231 0.0
0.0 0.004615384615384615 0.0
0.0 0.005 0.0
0.0 0.005111111111111111 0.0
0.0 0.005222222222222223 0.0
0.0 0.005333333333333333 0.0
0.0 0.0054444444444444445 0.0
0.0 0.005555555555555556 0.0
0.0 0.005666666666666667 0.0
0.0 0.0057777777777777775 0.0
0.0 0.005888888888888889 0.0
0.0 0.006 0.0
0.0 0.01711111111111111 0.0
0.0 0.028222222222222225 0.0
0.0 0.03933333333333333 0.0
0.0 0.050444444444444445 0.0
0.0 0.06155555555555556 0.0
0.0 0.07266666666666667 0.0
0.0 0.08377777777777778 0.0
0.0 0.0948888888888889 0.0
0.0 0.10600000000000001 0.0
0.0 0.10611111111111113 0.0
0.0 0.10622222222222223 0.0
0.0 0.10633333333333335 0.0
0.0 0.10644444444444445 0.0
0.0 0.10655555555555557 0.0
0.0 0.10666666666666667 0.0
0.0 0.10677777777777779 0.0
0.0 0.1068888888888889 0.0
0.0 0.10700000000000001 0.0
1.1111111111111112E-4 0.0 0.0
1.1111111111111112E-4 3.846153846153846E-4 0.0
1.1111111111111112E-4 7.692307692307692E-4 0.0
1.1111111111111112E-4 0.0011538461538461537 0.0
1.1111111111111112E-4 0.0015384615384615385 0.0
1.1111111111111112E-4 0.0019230769230769232 0.0
1.1111111111111112E-4 0.0023076923076923075 0.0
1.1111111111111112E-4 0.002692307692307692 0.0
1.1111111111111112E-4 0.003076923076923077 0.0
1.1111111111111112E-4 0.0034615384615384616 0.0
1.1111111111111112E-4 0.0038461538461538464 0.0
1.1111111111111112E-4 0.004230769230769231 0.0
1.1111111111111112E-4 0.004615384615384615 0.0
1.1111111111111112E-4 0.005 0.0
1.1111111111111112E-4 0.005111111111111111 0.0
1.1111111111111112E-4 0.005222222222222223 0.0
1.1111111111111112E-4 0.005333333333333333 0.0
1.1111111111111112E-4 0.0054444444444444445 0.0
1.1111111111111112E-4 0.005555555555555556 0.0
1.1111111111111112E-4 0.005666666666666667 0.0
1.1111111111111112E-4 0.0057777777777777775 0.0
1.1111111111111112E-4 0.005888888888888889 0.0
1.1111111111111112E-4 0.006 0.0
1.1111111111111112E-4 0.01711111111111111 0.0
1.1111111111111112E-4 0.028222222222222225 0.0
1.1111111111111112E-4 0.03933333333333333 0.0
1.1111111111111112E-4 0.050444444444444445 0.0
1.1111111111111112E-4 0.06155555555555556 0.0
1.1111111111111112E-4 0.07266666666666667 0.0
1.1111111111111112E-4 0.08377777777777778 0.0
1.1111111111111112E-4 0.0948888888888889 0.0
1.1111111111111112E-4 0.10600000000000001 0.0
1.1111111111111112E-4 0.10611111111111113 0.0
1.1111111111111112E-4 0.10622222222222223 0.0
1.1111111111111112E-4 0.10633333333333335 0.0
1.1111111111111112E-4 0.10644444444444445 0.0
1.1111111111111112E-4 0.10655555555555557 0.0
1.1111111111111112E-4 0.10666666666666667 0.0
1.1111111111111112E-4 0.10677777777777779 0.0
1.1111111111111112E-4 0.1068888888888889 0.0
1.1111111111111112E-4 0.10700000000000001 0.0
2.2222222222222223E-4 0.0 0.0
2.2222222222222223E-4 3.846153846153846E-4 0.0
2.2222222222222223E-4 7.692307692307692E-4 0.0
2.2222222222222223E-4 0.0011538461538461537 0.0
2.2222222222222223E-4 0.0015384615384615385 0.0
2.2222222222222223E-4 0.0019230769230769232 0.0
2.2222222222222223E-4 0.0023076923076923075 0.0
2.2222222222222223E-4 0.002692307692307692 0.0
2.2222222222222223E-4 0.003076923076923077 0.0
2.2222222222222223E-4 0.0034615384615384616 0.0
2.2222222222222223E-4 0.0038461538461538464 0.0
2.2222222222222223E-4 0.004230769230769231 0.0
2.2222222222222223E-4 0.004615384615384615 0.0
2.2222222222222223E-4 0.005 0.0
2.2222222222222223E-4 0.005111111111111111 0.0
2.2222222222222223E-4 0.005222222222222223 0.0
2.2222222222222223E-4 0.005333333333333333 0.0
2.2222222222222223E-4 0.0054444444444444445 0.0
2.2222222222222223E-4 0.005555555555555556 0.0
2.2222222222222223E-4 0.005666666666666667 0.0
2.2222222222222223E-4 0.0057777777777777775 0.0
2.2222222222222223E-4 0.005888888888888889 0.0
2.2222222222222223E-4 0.006 0.0
2.2222222222222223E-4 0.01711111111111111 0.0
2.2222222222222223E-4 0.028222222222222225 0.0
2.2222222222222223E-4 0.03933333333333333 0.0
2.2222222222222223E-4 0.050444444444444445 0.0
2.2222222222222223E-4 0.06155555555555556 0.0
2.2222222222222223E-4 0.07266666666666667 0.0
2.2222222222222223E-4 0.08377777777777778 0.0
2.2222222222222223E-4 0.0948888888888889 0.0
2.2222222222222223E-4 0.10600000000000001 0.0
2.2222222222222223E-4 0.10611111111111113 0.0
2.2222222222222223E-4 0.10622222222222223 0.0
2.2222222222222223E-4 0.10633333333333335 0.0
2.2222222222222223E-4 0.10644444444444445 0.0
2.2222222222222223E-4 0.10655555555555557 0.0
2.2222222222222223E-4 0.10666666666666667 0.0
2.2222222222222223E-4 0.10677777777777779 0.0
2.2222222222222223E-4 0.1068888888888889 0.0
2.2222222222222223E-4 0.10700000000000001 0.0
3.333333333333334E-4 0.0 0.0
3.333333333333334E-4 3.846153846153846E-4 0.0
3.333333333333334E-4 7.692307692307692E-4 0.0
3.333333333333334E-4 0.0011538461538461537 0.0
3.333333333333334E-4 0.0015384615384615385 0.0
3.333333333333334E-4 0.0019230769230769232 0.0
3.333333333333334E-4 0.0023076923076923075 0.0
3.333333333333334E-4 0.002692307692307692 0.0
3.333333333333334E-4 0.003076923076923077 0.0
3.333333333333334E-4 0.0034615384615384616 0.0
3.333333333333334E-4 0.0038461538461538464 0.0
3.333333333333334E-4 0.004230769230769231 0.0
3.333333333333334E-4 0.004615384615384615 0.0
3.333333333333334E-4 0.005 0.0
3.333333333333334E-4 0.005111111111111111 0.0
3.333333333333334E-4 0.005222222222222223 0.0
3.333333333333334E-4 0.005333333333333333 0.0
3.333333333333334E-4 0.0054444444444444445 0.0
3.333333333333334E-4 0.005555555555555556 0.0
3.333333333333334E-4 0.005666666666666667 0.0
3.333333333333334E-4 0.0057777777777777775 0.0
3.333333333333334E-4 0.005888888888888889 0.0
3.333333333333334E-4 0.006 0.0
3.333333333333334E-4 0.01711111111111111 0.0
3.333333333333334E-4 0.028222222222222225 0.0
3.333333333333334E-4 0.03933333333333333 0.0
3.333333333333334E-4 0.050444444444444445 0.0
3.333333333333334E-4 0.06155555555555556 0.0
3.333333333333334E-4 0.07266666666666667 0.0
3.333333333333334E-4 0.08377777777777778 0.0
3.333333333333334E-4 0.0948888888888889 0.0
3.333333333333334E-4 0.10600000000000001 0.0
3.333333333333334E-4 0.10611111111111113 0.0
3.333333333333334E-4 0.10622222222222223 0.0
3.333333333333334E-4 0.10633333333333335 0.0
3.333333333333334E-4 0.10644444444444445 0.0
3.333333333333334E-4 0.10655555555555557 0.0
3.333333333333334E-4 0.10666666666666667 0.0
3.333333333333334E-4 0.10677777777777779 0.0
3.333333333333334E-4 0.1068888888888889 0.0
3.333333333333334E-4 0.10700000000000001 0.0
4.4444444444444447E-4 0.0 0.0
4.4444444444444447E-4 3.846153846153846E-4 0.0
4.4444444444444447E-4 7.692307692307692E-4 0.0
4.4444444444444447E-4 0.0011538461538461537 0.0
4.4444444444444447E-4 0.0015384615384615385 0.0
4.4444444444444447E-4 0.0019230769230769232 0.0
4.4444444444444447E-4 0.0023076923076923075 0.0
4.4444444444444447E-4 0.002692307692307692 0.0
4.4444444444444447E-4 0.003076923076923077 0.0
4.4444444444444447E-4 0.0034615384615384616 0.0
4.4444444444444447E-4 0.0038461538461538464 0.0
4.4444444444444447E-4 0.004230769230769231 0.0
4.4444444444444447E-4 0.004615384615384615 0.0
4.4444444444444447E-4 0.005 0.0
4.4444444444444447E-4 0.005111111111111111 0.0
4.4444444444444447E-4 0.005222222222222223 0.0
4.4444444444444447E-4 0.005333333333333333 0.0
4.4444444444444447E-4 0.0054444444444444445 0.0
4.4444444444444447E-4 0.005555555555555556 0.0
4.4444444444444447E-4 0.005666666666666667 0.0
4.4444444444444447E-4 0.0057777777777777775 0.0
4.4444444444444447E-4 0.005888888888888889 0.0
4.4444444444444447E-4 0.006 0.0
4.4444444444444447E-4 0.01711111111111111 0.0
4.4444444444444447E-4 0.028222222222222225 0.0
4.4444444444444447E-4 0.03933333333333333 0.0
4.4444444444444447E-4 0.050444444444444445 0.0
4.4444444444444447E-4 0.06155555555555556 0.0
4.4444444444444447E-4 0.07266666666666667 0.0
4.4444444444444447E-4 0.08377777777777778 0.0
4.4444444444444447E-4 0.0948888888888889 0.0
4.4444444444444447E-4 0.10600000000000001 0.0
4.4444444444444447E-4 0.10611111111111113 0.0
4.4444444444444447E-4 0.10622222222222223 0.0
4.4444444444444447E-4 0.10633333333333335 0.0
4.4444444444444447E-4 0.10644444444444445 0.0
4.4444444444444447E-4 0.10655555555555557 0.0
4.4444444444444447E-4 0.10666666666666667 0.0
4.4444444444444447E-4 0.10677777777777779 0.0
4.4444444444444447E-4 0.1068888888888889 0.0
4.4444444444444447E-4 0.10700000000000001 0.0
5.555555555555556E-4 0.0 0.0
5.555555555555556E-4 3.846153846153846E-4 0.0
5.555555555555556E-4 7.692307692307692E-4 0.0
5.555555555555556E-4 0.0011538461538461537 0.0
5.555555555555556E-4 0.0015384615384615385 0.0
5.555555555555556E-4 0.0019230769230769232 0.0
5.555555555555556E-4 0.0023076923076923075 0.0
5.555555555555556E-4 0.002692307692307692 0.0
5.555555555555556E-4 0.003076923076923077 0.0
5.555555555555556E-4 0.0034615384615384616 0.0
5.555555555555556E-4 0.0038461538461538464 0.0
5.555555555555556E-4 0.004230769230769231 0.0
5.555555555555556E-4 0.004615384615384615 0.0
5.555555555555556E-4 0.005 0.0
5.555555555555556E-4 0.005111111111111111 0.0
5.555555555555556E-4 0.005222222222222223 0.0
5.555555555555556E-4 0.005333333333333333 0.0
5.555555555555556E-4 0.0054444444444444445 0.0
5.555555555555556E-4 0.005555555555555556 0.0
5.555555555555556E-4 0.005666666666666667 0.0
5.555555555555556E-4 0.0057777777777777775 0.0
5.555555555555556E-4 0.005888888888888889 0.0
5.555555555555556E-4 0.006 0.0
5.555555555555556E-4 0.01711111111111111 0.0
5.555555555555556E-4 0.028222222222222225 0.0
5.555555555555556E-4 0.03933333333333333 0.0
5.555555555555556E-4 0.050444444444444445 0.0
5.555555555555556E-4 0.06155555555555556 0.0
[...]
POINT_DATA 1353
SCALARS Temperatura float 1
LOOKUP_TABLE default
75.17799265027237
75.04003200732942
74.90090458389352
74.76057449699624
74.61899903156225
74.47612044157286
74.33186042484465
74.18611058301147
74.03871565418204
73.8894367542835
73.73789750500995
73.58338143218057
73.42482992496934
73.25757467484948
73.08338059661561
72.91446545331576
72.74662402662614
72.5789845047795
72.41091640138225
72.24191651435032
72.07152750590471
71.89931272844771
71.72484817690298
51.74298491374317
51.53398753450975
51.56996545184114
51.561131557247094
51.56340567022575
51.562410754501094
51.564478269291534
51.55441251062544
50.75042596901212
50.743590165035165
50.7368554807748
50.73020985825048
50.72364193927494
50.71714155910934
50.710700104827396
50.70431074293263
50.697968542751646
50.69167053092049
75.18134859113577
75.04338188274984
74.90424742025922
74.76391075704126
74.62232923235466
74.47944535167764
74.33518112615182
74.18942897557574
74.04203426812914
73.89276351349548
73.74123298813628
73.58679349276507
73.42815598899247
73.26215465973394
73.09321160856784
72.92486731951155
72.75740776684334
72.5900201682281
72.42216108328965
72.25335189651106
72.08314544981555
71.91110780689985
71.73681387411506
51.74759017950736
51.54099108562602
51.57634665173492
51.56767531891462
51.569905455353776
51.568928020553884
51.57096777372894
51.560999546204464
50.75671170649507
50.74988068510794
50.74315074572387
50.736509516371065
50.72994538526326
50.723448007762805
50.717008660616834
50.710620453800544
50.70427843417292
50.69797962257866
75.18484870432253
75.04687893877123
74.9077401145903
74.76740036724667
74.62581751709449
74.48293472490596
74.33867507587075
74.1929329170755
74.0455576315654
73.89632273868017
73.74486105475857
73.5905577986589
73.4321588784251
73.26766664828247
73.1012056842508
72.93470633504712
72.7682655667735
72.60165723053917
72.43447323048201
72.26629718463042
72.09670627020272
71.92527216575267
71.75156476658128
51.74841923269649
51.54910599936603
51.58257765448516
51.57439836850095
51.57649539131071
51.575570911825
51.57752643029584
51.56785512146166
50.76299176996393
50.756178250237404
50.74946562431942
50.742840549695345
50.736290645477915
50.7298050381141
50.72337469567369
50.71699258330557
50.710653700975776
50.70435506507887
75.18849403437632
75.05052308223841
74.91138257143061
74.7710431846396
74.62946369087815
74.48658829474921
74.34234181637609
74.19662180692137
74.04928398529272
73.90011367298042
73.74877091640253
73.59468214240542
73.4367745301726
73.27374231777914
73.10920434820557
72.9444207838177
72.77939613694332
72.61397732036711
72.4478850959123
72.28076439033882
72.11221859110907
71.94182121439219
71.76912789992957
51.74546101940089
51.55833685150232
51.588656850018715
51.58130127914931
51.58317530602612
51.582339566746874
51.58415407474163
51.574979661257025
50.76926528458344
50.76248310906313
50.75580137226837
50.74920499529526
50.7426802761211
50.73621549284512
50.72980117329264
50.72343012227608
50.71709732662297
50.71079983512176
75.19228510676835
75.05431428756636
74.9151746036956
74.77483896731164
74.63326742882734
74.49040560228019
74.34618064414762
74.20049446018622
74.05321116393483
73.90413264660116
73.7529526213734
73.59916125629113
73.4419036099866
73.28029067584528
73.11750833482463
72.95442259203455
72.79098585372265
72.62706199227281
72.46242203626974
72.2967559663458
72.12968533829503
71.96077479822173
71.78954849488288
51.73869747968967
51.568691161869396
51.59458156159244
51.588384985999326
51.589944898810394
51.58923420033677
51.59085042024259
51.58237384964516
50.775530747775505
50.76879582333465
50.76216035967217
50.75560656025078
50.7491188028035
50.742684287500275
50.73629312161826
50.729938077588784
50.723614266253605
50.71731886377183
75.19622213722587
75.05825248119028
74.9191159520977
74.7787873719427
74.63722827843237
74.49438601394489
74.350190595572
74.20454924949078
74.05733633880776
73.90837408676126
73.75739594683951
73.60397465389488
73.44746589602745
73.2872604886636
73.12620307100975
72.9648510248147
72.80313980759779
72.64094579930236
72.47807252022058
72.31424184449887
72.14908656219465
71.98214799808449
71.8128909579672
51.728103260738884
51.58017947766058
51.60034802098975
51.595650793805085
51.59680373759934
51.59625510654841
51.59761505136211
51.59003865079244
50.781785953500496
50.775117572157704
50.76854661043657
50.762051192152
50.75561316603408
50.74921868035523
50.74285775036315
50.736523487263355
50.73021140635707
50.72391897877695
75.20030513033328
75.06233750087266
74.92320628264399
74.7828879563481
74.64134566466858
74.49852873412301
74.35437046625788
74.20878417833606
74.06165598759624
73.91283126466439
73.76208866735935
73.60909460315152
73.4533966672693
73.29460407960173
73.13528893005561
72.97572710205435
72.81586117328074
72.65559159659415
72.49476009634436
72.33312952212775
72.17035141780212
72.0059343288118
71.83924081739661
51.7136451754057
51.59281552753645
51.605951323730714
51.60310039032744
51.603751254267614
51.60340266214392
51.60444741411313
51.59797534359592
50.78802786647209
50.78145081024016
50.77496689086759
50.76854809566783
50.76217340844434
50.75582859418886
50.74950454091367
50.74319537808614
50.736897456664806
50.73060877679266
75.20453392988065
75.0665690837417
74.92744518088372
74.78714018241298
74.64561889675865
74.50283281882591
74.35871884277952
74.21319693226528
74.06616602070066
73.91749657408529
73.76701650136637
73.61449066335967
73.45964063423506
73.30226929149228
73.14472255024785
72.98700252795388
72.82907643766322
72.67088380783679
72.51232186033799
72.35322256296476
72.19330807017587
72.03206922653303
71.86870836977333
51.69528119514739
51.60661650327768
51.611385349035004
51.610735869647684
51.61078673673331
51.610677333038325
51.611346799606494
51.60618557907512
50.79425241266841
50.787800849992166
50.78143287229003
50.77511160764016
50.76881343842002
50.7625268511571
50.75624521259734
50.749964604238656
50.743682732759176
50.73739839034391
75.2089082472842
75.07094686529919
74.93183214775735
74.79154341886833
74.65004717590384
74.50729719203895
74.36323413706111
74.21778494034162
74.070861933336
73.92236173663959
73.7721636927008
73.62013180562921
73.46614787167489
73.31019882354828
73.15443386647273
72.99858451135287
72.84265439797731
72.68663514497183
72.53049853201492
72.37418241278684
72.21755740226072
72.06034651622069
71.90143573666451
51.67295852091082
51.62160359158132
51.61664261158019
51.61855977433501
51.61790931516715
51.61807968489526
51.61831231687604
51.61467147633658
50.80045412756109
50.794178081359725
50.78796834562409
50.78176284305222
50.77555145169368
50.76932907876724
50.763093445109405
50.75684350603034
50.750578795441946
50.744299123258514
75.21342767964362
75.07547038253618
74.9363665976204
74.79609694407854
74.65462960372088
74.51192066377678
74.36791462259761
74.22254544653622
74.07573895626406
73.92741804739627
73.77751370287542
73.62598732069186
73.47287158926638
73.3183318857678
73.1643371234794
73.01035298337787
72.85642498785776
72.70260358589597
72.54894637243244
72.39552135066292
72.24241201320031
72.08972594778672
53.565242420143264
53.565242420143264
53.565242420143264
53.565242420143264
53.565242420143264
53.565242420143264
53.565242420143264
53.565242420143264
53.565242420143264
53.565242420143264
50.80064488336335
50.794610345002944
50.78852989094711
50.782409342072995
50.77625305043483
50.77006426622989
50.763845356558406
50.757597936915374
50.7513229504055
75.99035943494233
75.8538740328752
75.71887786019813
75.58538715849521
75.4534288597129
75.32304072407274
75.1942715261585
75.06718118556147
74.94184063247427
74.81833099944065
74.69674133089472
74.57716329279147
74.45968086546677
74.3443543478585
74.23109388073415
74.11807478873197
74.00529515238458
73.8927517980406
73.7804396937525
73.66835106356316
73.55647401125334
73.44479019489928
53.565242420143264
53.565242420143264
53.565242420143264
53.565242420143264
53.565242420143264
53.565242420143264
53.565242420143264
53.565242420143264
53.565242420143264
53.565242420143264
51.64246687763421
51.633837151909454
51.62550197881142
51.6174590382116
51.60970651499878
51.602242999036385
51.595067425238135
51.58817903736408
51.581577366119575
76.50714622914126
76.37043371670227
76.23453579181853
76.0994464151796
75.9651553148642
75.83164783410184
75.69890471835791
75.56690186775973
75.43561010919342
75.30499509647788
75.17501755637002
75.04563429359247
74.91680051256344
74.78847367010395
74.66139750385165
74.53441864759489
74.4075348328718
74.28074409192851
74.1540449190413
74.02743650784268
73.90091912091225
73.77449471496251
53.565242420143264
53.565242420143264
53.565242420143264
53.565242420143264
53.565242420143264
53.565242420143264
53.565242420143264
53.565242420143264
53.565242420143264
53.565242420143264
51.65282711833972
51.64587141388288
51.63897950343416
51.63215231622387
51.625390592973176
51.61869491339995
51.612065712822385
51.60550329227335
51.59900782466032
76.7786985332881
76.6420125493263
76.50608492634841
76.37091753807799
76.23651345403269
76.10287701904646
75.97001396565642
75.83793155350862
75.70663872258027
75.57614623255505
75.44646673100503
75.31761463945632
75.18960570503765
75.06245615303878
74.93675883439026
74.81119650663972
74.68577036735837
74.56048154561749
74.43533105969101
74.31031975425819
74.18544820195714
74.0607165361259
53.565242420143264
53.565242420143264
53.565242420143264
53.565242420143264
53.565242420143264
53.565242420143264
53.565242420143264
53.565242420143264
53.565242420143264
53.565242420143264
51.652741188922974
51.645360879362926
51.638103902705964
51.63096989624877
51.623958561418924
51.61706965613437
51.61030299014052
51.60365842213711
51.597135858012486
76.93163995666374
76.79495224405981
76.6589556528438
76.523649778639
76.38903383170508
76.2551066045189
76.12186642560782
75.98931110069263
75.85743784403729
75.72624320669694
75.59572301633128
75.46587235784692
75.33668563584615
75.20815673746758
75.08097341511557
74.95390472297689
74.82695014299196
74.70010917079016
74.57338132658269
74.44676617158171
74.32026333402568
74.19387255373103
53.565242420143264
53.565242420143264
53.565242420143264
53.565242420143264
53.565242420143264
53.565242420143264
53.565242420143264
53.565242420143264
53.565242420143264
53.565242420143264
51.65274186376264
51.64547246323383
51.63831057527146
51.63125629133807
51.62430968198925
51.61747079901563
51.61073967676753
51.60411633298233
51.597600769298175
77.01327226937183
76.87658342474222
76.74055000200177
76.6051722252091
76.47045038534662
76.33638485207399
76.20297609059173
76.07022468353125
75.93813135734896
75.8066970117288
75.67592274837212
75.54580989159149
75.41635998983544
75.28757479303485
75.16014400802402
75.03282985957587
74.90563252086065
74.77855216242938
74.65158894945682
74.52474303748956
74.3980145655958
74.27140364450696
53.565242420143264
53.565242420143264
53.565242420143264
53.565242420143264
53.565242420143264
53.565242420143264
53.565242420143264
53.565242420143264
53.565242420143264
53.565242420143264
51.65275189335769
51.64545342478706
51.63826668651344
51.63119161980996
51.62422817246802
51.617376298189065
51.61063595620277
51.60400711102499
51.59748973230574
77.0531790763514
76.91649051985499
76.78044146712924
76.64503199467795
76.51026213948057
76.37613189479056
76.24264120405817
76.10978995291926
75.97757795929124
75.84600496187184
75.71507060792571
75.58477444237464
75.45511590117414
75.32609431038016
75.19841296181613
75.07084549907424
74.94339186241633
74.81605199215241
74.68882582935775
74.56171331701925
74.43471440192683
74.30782903800142
53.565242420143264
53.565242420143264
53.565242420143264
53.565242420143264
53.565242420143264
53.565242420143264
53.565242420143264
53.565242420143264
53.565242420143264
53.565242420143264
51.65274676988679
51.64545606204464
51.63827593848937
51.63120638931025
51.6242474023398
51.617398963339326
51.61066105611751
51.60403366260673
51.59751676291173
77.06508478311163
76.92839599281139
76.79234134712182
76.65692096883609
76.52213497706823
76.38798348967482
76.2544666267806
76.12158451547425
75.98933729570277
75.8577251272779
75.72674819762226
75.59640672932287
75.46670098606941
75.33763127632206
75.20990210598492
75.08228694475238
74.95478583411871
74.82739881552283
74.7001259300221
74.57296721775154
74.44592271700907
74.31899246262078
53.565242420143264
53.565242420143264
53.565242420143264
53.565242420143264
53.565242420143264
53.565242420143264
53.565242420143264
53.565242420143264
53.565242420143264
53.565242420143264
51.65274908062847
51.645455838819274
51.63827356267319
51.63120222319201
51.624241792516266
51.61739224382734
51.610653551284116
51.60402568998179
51.597508635925344
77.05317907635124
76.91649051985482
76.78044146712904
76.64503199467768
76.51026213948018
76.37613189478998
76.24264120405743
76.10978995291843
75.97757795929034
75.84600496187076
75.71507060792442
75.58477444237312
75.45511590117239
75.32609431037814
75.19841296181386
75.07084549907172
74.94339186241363
74.8160519921495
74.68882582935467
74.56171331701606
74.43471440192356
74.30782903799809
53.565242420143264
53.565242420143264
53.565242420143264
53.565242420143264
53.565242420143264
53.565242420143264
53.565242420143264
53.565242420143264
53.565242420143264
53.565242420143264
51.65274676988184
51.64545606203968
51.6382759384844
51.63120638930527
51.62424740233479
51.61739896333428
51.61066105611244
51.60403366260166
51.597516762906665
77.01327226937529
76.87658342474569
76.74055000200526
76.60517222521263
76.4704503853502
76.33638485207764
76.2029760905954
76.07022468353489
75.93813135735255
75.8066970117324
75.67592274837581
75.5458098915953
75.41635998983932
75.28757479303889
75.16014400802821
75.03282985958018
74.90563252086507
74.77855216243398
74.65158894946151
74.52474303749429
74.3980145656005
74.27140364451164
53.565242420143264
53.565242420143264
53.565242420143264
53.565242420143264
53.565242420143264
53.565242420143264
53.565242420143264
53.565242420143264
53.565242420143264
53.565242420143264
51.65275189334208
51.64545342477137
51.63826668649767
51.63119161979411
51.62422817245208
51.617376298173056
51.61063595618672
51.60400711100891
51.59748973228966
76.93163995666916
76.79495224406524
76.65895565284931
76.52364977864457
76.38903383171063
76.25510660452436
76.12186642561328
75.98931110069805
75.85743784404266
75.72624320670215
75.59572301633627
75.46587235785162
75.33668563585059
75.20815673747173
75.08097341511949
74.95390472298061
74.82695014299556
74.70010917079364
74.57338132658607
74.44676617158504
74.320263334029
74.19387255373431
53.565242420143264
53.565242420143264
53.565242420143264
53.565242420143264
53.565242420143264
53.565242420143264
53.565242420143264
53.565242420143264
53.565242420143264
53.565242420143264
51.65274186376147
51.64547246323266
51.6383105752703
51.631256291336925
51.62430968198814
51.61747079901456
51.610739676766485
51.60411633298127
51.59760076929712
76.7786985333008
76.642012549339
76.50608492636107
76.3709175380906
76.23651345404527
76.10287701905901
75.97001396566891
75.83793155352109
75.70663872259273
75.57614623256754
75.44646673101758
75.31761463946894
75.18960570505028
75.06245615305141
74.93675883440285
74.8111965066523
74.68577036737088
74.56048154562986
74.43533105970329
74.31031975427035
74.18544820196914
74.06071653613778
53.565242420143264
53.565242420143264
53.565242420143264
53.565242420143264
53.565242420143264
53.565242420143264
53.565242420143264
53.565242420143264
53.565242420143264
53.565242420143264
51.65274118892049
51.645360879360425
51.63810390270345
51.63096989624626
51.623958561416416
51.61706965613185
51.610302990137995
51.60365842213461
51.597135858009985
76.50714622915716
76.3704337167182
76.23453579183452
76.09944641519567
75.96515531488038
75.8316478341181
75.69890471837428
75.56690186777618
75.43561010920992
75.30499509649442
75.17501755638662
75.04563429360914
74.91680051258024
74.7884736701209
74.66139750386877
74.53441864761218
74.40753483288925
74.28074409194615
74.15404491905905
74.02743650786056
73.90091912093021
73.77449471498049
53.565242420143264
53.565242420143264
53.565242420143264
53.565242420143264
53.565242420143264
53.565242420143264
53.565242420143264
53.565242420143264
53.565242420143264
53.565242420143264
51.65282711832959
51.645871413872676
51.6389795034239
51.63215231621357
51.62539059296285
51.61869491338962
51.61206571281206
51.60550329226305
51.59900782465002
75.99035943494624
75.85387403287909
75.71887786020203
75.58538715849913
75.45342885971681
75.32304072407662
75.19427152616232
75.06718118556522
74.94184063247798
74.81833099944437
74.69674133089846
74.57716329279522
74.45968086547052
74.34435434786224
74.23109388073783
74.11807478873561
74.00529515238816
73.89275179804409
73.78043969375595
73.66835106356655
73.55647401125664
73.44479019490251
53.565242420143264
53.565242420143264
53.565242420143264
53.565242420143264
53.565242420143264
53.565242420143264
53.565242420143264
53.565242420143264
53.565242420143264
53.565242420143264
51.64246687763514
51.63383715191038
51.62550197881234
51.61745903821252
51.60970651499969
51.60224299903725
51.59506742523895
51.58817903736487
51.58157736612035
75.2134276796439
75.07547038253648
74.9363665976207
74.79609694407878
74.6546296037211
74.51192066377702
74.36791462259792
74.2225454465366
74.07573895626453
73.92741804739681
73.77751370287602
73.62598732069252
73.47287158926709
73.31833188576854
73.16433712348022
73.01035298337875
72.85642498785874
72.7026035858971
72.54894637243362
72.39552135066418
72.2424120132016
72.08972594778805
53.565242420143264
53.565242420143264
53.565242420143264
53.565242420143264
53.565242420143264
53.565242420143264
53.565242420143264
53.565242420143264
53.565242420143264
53.565242420143264
50.80064488335564
50.79461034499528
50.7885298909395
50.7824093420654
50.776253050427265
50.770064266222356
50.763845356550924
50.7575979369079
50.75132295039803
75.20890824728451
75.07094686529953
74.93183214775766
74.79154341886854
74.65004717590409
74.50729719203919
74.36323413706153
74.21778494034207
74.07086193333654
73.9223617366402
73.77216369270137
73.62013180562998
73.4661478716757
73.31019882354919
73.15443386647361
72.99858451135384
72.84265439797832
72.68663514497291
72.53049853201607
72.37418241278803
72.21755740226197
72.06034651622201
71.90143573666583
51.67295852091667
51.621603591603304
51.61664261158823
51.6185597743427
51.61790931519762
51.61807968490229
51.61831231687507
51.61467147633766
50.80045412755335
50.79417808135198
50.787968345616335
50.781762843044525
50.775551451686
50.7693290787596
50.76309344510178
50.756843506022754
50.75057879543438
50.74429912325096
75.20453392988102
75.06656908374201
74.92744518088404
74.78714018241315
74.64561889675892
74.50283281882622
74.35871884277991
74.21319693226576
74.06616602070125
73.91749657408596
73.76701650136694
73.6144906633605
73.45964063423595
73.30226929149322
73.14472255024882
72.98700252795483
72.82907643766424
72.67088380783787
72.5123218603391
72.35322256296587
72.19330807017704
72.03206922653422
71.86870836977461
51.69528119515335
51.60661650329976
51.61138534904301
51.610735869655464
51.610786736763906
51.61067733304542
51.61134679960556
51.60618557907618
50.79425241266061
50.78780084998434
50.781432872282224
50.77511160763238
50.76881343841229
50.76252685114939
50.75624521258966
50.749964604230975
50.74368273275147
50.73739839033622
75.20030513033362
75.062337500873
74.9232062826443
74.78288795634826
74.64134566466886
74.49852873412325
74.35437046625826
74.20878417833666
74.06165598759688
73.91283126466509
73.76208866735993
73.60909460315241
73.45339666727023
73.29460407960276
73.13528893005657
72.97572710205537
72.81586117328173
72.65559159659519
72.49476009634546
72.33312952212889
72.17035141780329
72.005934328813
71.83924081739788
51.713645175411784
51.592815527558564
51.60595132373874
51.60310039033533
51.60375125429831
51.6034026621511
51.60444741411215
51.59797534359699
50.788027866464255
50.781450810232336
50.77496689085974