# vtk DataFile Version 2.0
Niestacjonarne zagadnienie cieplne - ogrzewanie wody w garnku stalowym
ASCII
DATASET UNSTRUCTURED_GRID
POINTS 1353 float
0.0 0.0 0.0
0.0 3.846153846153846E-4 0.0
0.0 7.692307692307692E-4 0.0
0.0 0.0011538461538461537 0.0
0.0 0.0015384615384615385 0.0
0.0 0.0019230769230769232 0.0
0.0 0.0023076923076923075 0.0
0.0 0.002692307692307692 0.0
0.0 0.003076923076923077 0.0
0.0 0.0034615384615384616 0.0
0.0 0.0038461538461538464 0.0
0.0 0.004230769230769231 0.0
0.0 0.004615384615384615 0.0
0.0 0.005 0.0
0.0 0.005111111111111111 0.0
0.0 0.005222222222222223 0.0
0.0 0.005333333333333333 0.0
0.0 0.0054444444444444445 0.0
0.0 0.005555555555555556 0.0
0.0 0.005666666666666667 0.0
0.0 0.0057777777777777775 0.0
0.0 0.005888888888888889 0.0
0.0 0.006 0.0
0.0 0.01711111111111111 0.0
0.0 0.028222222222222225 0.0
0.0 0.03933333333333333 0.0
0.0 0.050444444444444445 0.0
0.0 0.06155555555555556 0.0
0.0 0.07266666666666667 0.0
0.0 0.08377777777777778 0.0
0.0 0.0948888888888889 0.0
0.0 0.10600000000000001 0.0
0.0 0.10611111111111113 0.0
0.0 0.10622222222222223 0.0
0.0 0.10633333333333335 0.0
0.0 0.10644444444444445 0.0
0.0 0.10655555555555557 0.0
0.0 0.10666666666666667 0.0
0.0 0.10677777777777779 0.0
0.0 0.1068888888888889 0.0
0.0 0.10700000000000001 0.0
1.1111111111111112E-4 0.0 0.0
1.1111111111111112E-4 3.846153846153846E-4 0.0
1.1111111111111112E-4 7.692307692307692E-4 0.0
1.1111111111111112E-4 0.0011538461538461537 0.0
1.1111111111111112E-4 0.0015384615384615385 0.0
1.1111111111111112E-4 0.0019230769230769232 0.0
1.1111111111111112E-4 0.0023076923076923075 0.0
1.1111111111111112E-4 0.002692307692307692 0.0
1.1111111111111112E-4 0.003076923076923077 0.0
1.1111111111111112E-4 0.0034615384615384616 0.0
1.1111111111111112E-4 0.0038461538461538464 0.0
1.1111111111111112E-4 0.004230769230769231 0.0
1.1111111111111112E-4 0.004615384615384615 0.0
1.1111111111111112E-4 0.005 0.0
1.1111111111111112E-4 0.005111111111111111 0.0
1.1111111111111112E-4 0.005222222222222223 0.0
1.1111111111111112E-4 0.005333333333333333 0.0
1.1111111111111112E-4 0.0054444444444444445 0.0
1.1111111111111112E-4 0.005555555555555556 0.0
1.1111111111111112E-4 0.005666666666666667 0.0
1.1111111111111112E-4 0.0057777777777777775 0.0
1.1111111111111112E-4 0.005888888888888889 0.0
1.1111111111111112E-4 0.006 0.0
1.1111111111111112E-4 0.01711111111111111 0.0
1.1111111111111112E-4 0.028222222222222225 0.0
1.1111111111111112E-4 0.03933333333333333 0.0
1.1111111111111112E-4 0.050444444444444445 0.0
1.1111111111111112E-4 0.06155555555555556 0.0
1.1111111111111112E-4 0.07266666666666667 0.0
1.1111111111111112E-4 0.08377777777777778 0.0
1.1111111111111112E-4 0.0948888888888889 0.0
1.1111111111111112E-4 0.10600000000000001 0.0
1.1111111111111112E-4 0.10611111111111113 0.0
1.1111111111111112E-4 0.10622222222222223 0.0
1.1111111111111112E-4 0.10633333333333335 0.0
1.1111111111111112E-4 0.10644444444444445 0.0
1.1111111111111112E-4 0.10655555555555557 0.0
1.1111111111111112E-4 0.10666666666666667 0.0
1.1111111111111112E-4 0.10677777777777779 0.0
1.1111111111111112E-4 0.1068888888888889 0.0
1.1111111111111112E-4 0.10700000000000001 0.0
2.2222222222222223E-4 0.0 0.0
2.2222222222222223E-4 3.846153846153846E-4 0.0
2.2222222222222223E-4 7.692307692307692E-4 0.0
2.2222222222222223E-4 0.0011538461538461537 0.0
2.2222222222222223E-4 0.0015384615384615385 0.0
2.2222222222222223E-4 0.0019230769230769232 0.0
2.2222222222222223E-4 0.0023076923076923075 0.0
2.2222222222222223E-4 0.002692307692307692 0.0
2.2222222222222223E-4 0.003076923076923077 0.0
2.2222222222222223E-4 0.0034615384615384616 0.0
2.2222222222222223E-4 0.0038461538461538464 0.0
2.2222222222222223E-4 0.004230769230769231 0.0
2.2222222222222223E-4 0.004615384615384615 0.0
2.2222222222222223E-4 0.005 0.0
2.2222222222222223E-4 0.005111111111111111 0.0
2.2222222222222223E-4 0.005222222222222223 0.0
2.2222222222222223E-4 0.005333333333333333 0.0
2.2222222222222223E-4 0.0054444444444444445 0.0
2.2222222222222223E-4 0.005555555555555556 0.0
2.2222222222222223E-4 0.005666666666666667 0.0
2.2222222222222223E-4 0.0057777777777777775 0.0
2.2222222222222223E-4 0.005888888888888889 0.0
2.2222222222222223E-4 0.006 0.0
2.2222222222222223E-4 0.01711111111111111 0.0
2.2222222222222223E-4 0.028222222222222225 0.0
2.2222222222222223E-4 0.03933333333333333 0.0
2.2222222222222223E-4 0.050444444444444445 0.0
2.2222222222222223E-4 0.06155555555555556 0.0
2.2222222222222223E-4 0.07266666666666667 0.0
2.2222222222222223E-4 0.08377777777777778 0.0
2.2222222222222223E-4 0.0948888888888889 0.0
2.2222222222222223E-4 0.10600000000000001 0.0
2.2222222222222223E-4 0.10611111111111113 0.0
2.2222222222222223E-4 0.10622222222222223 0.0
2.2222222222222223E-4 0.10633333333333335 0.0
2.2222222222222223E-4 0.10644444444444445 0.0
2.2222222222222223E-4 0.10655555555555557 0.0
2.2222222222222223E-4 0.10666666666666667 0.0
2.2222222222222223E-4 0.10677777777777779 0.0
2.2222222222222223E-4 0.1068888888888889 0.0
2.2222222222222223E-4 0.10700000000000001 0.0
3.333333333333334E-4 0.0 0.0
3.333333333333334E-4 3.846153846153846E-4 0.0
3.333333333333334E-4 7.692307692307692E-4 0.0
3.333333333333334E-4 0.0011538461538461537 0.0
3.333333333333334E-4 0.0015384615384615385 0.0
3.333333333333334E-4 0.0019230769230769232 0.0
3.333333333333334E-4 0.0023076923076923075 0.0
3.333333333333334E-4 0.002692307692307692 0.0
3.333333333333334E-4 0.003076923076923077 0.0
3.333333333333334E-4 0.0034615384615384616 0.0
3.333333333333334E-4 0.0038461538461538464 0.0
3.333333333333334E-4 0.004230769230769231 0.0
3.333333333333334E-4 0.004615384615384615 0.0
3.333333333333334E-4 0.005 0.0
3.333333333333334E-4 0.005111111111111111 0.0
3.333333333333334E-4 0.005222222222222223 0.0
3.333333333333334E-4 0.005333333333333333 0.0
3.333333333333334E-4 0.0054444444444444445 0.0
3.333333333333334E-4 0.005555555555555556 0.0
3.333333333333334E-4 0.005666666666666667 0.0
3.333333333333334E-4 0.0057777777777777775 0.0
3.333333333333334E-4 0.005888888888888889 0.0
3.333333333333334E-4 0.006 0.0
3.333333333333334E-4 0.01711111111111111 0.0
3.333333333333334E-4 0.028222222222222225 0.0
3.333333333333334E-4 0.03933333333333333 0.0
3.333333333333334E-4 0.050444444444444445 0.0
3.333333333333334E-4 0.06155555555555556 0.0
3.333333333333334E-4 0.07266666666666667 0.0
3.333333333333334E-4 0.08377777777777778 0.0
3.333333333333334E-4 0.0948888888888889 0.0
3.333333333333334E-4 0.10600000000000001 0.0
3.333333333333334E-4 0.10611111111111113 0.0
3.333333333333334E-4 0.10622222222222223 0.0
3.333333333333334E-4 0.10633333333333335 0.0
3.333333333333334E-4 0.10644444444444445 0.0
3.333333333333334E-4 0.10655555555555557 0.0
3.333333333333334E-4 0.10666666666666667 0.0
3.333333333333334E-4 0.10677777777777779 0.0
3.333333333333334E-4 0.1068888888888889 0.0
3.333333333333334E-4 0.10700000000000001 0.0
4.4444444444444447E-4 0.0 0.0
4.4444444444444447E-4 3.846153846153846E-4 0.0
4.4444444444444447E-4 7.692307692307692E-4 0.0
4.4444444444444447E-4 0.0011538461538461537 0.0
4.4444444444444447E-4 0.0015384615384615385 0.0
4.4444444444444447E-4 0.0019230769230769232 0.0
4.4444444444444447E-4 0.0023076923076923075 0.0
4.4444444444444447E-4 0.002692307692307692 0.0
4.4444444444444447E-4 0.003076923076923077 0.0
4.4444444444444447E-4 0.0034615384615384616 0.0
4.4444444444444447E-4 0.0038461538461538464 0.0
4.4444444444444447E-4 0.004230769230769231 0.0
4.4444444444444447E-4 0.004615384615384615 0.0
4.4444444444444447E-4 0.005 0.0
4.4444444444444447E-4 0.005111111111111111 0.0
4.4444444444444447E-4 0.005222222222222223 0.0
4.4444444444444447E-4 0.005333333333333333 0.0
4.4444444444444447E-4 0.0054444444444444445 0.0
4.4444444444444447E-4 0.005555555555555556 0.0
4.4444444444444447E-4 0.005666666666666667 0.0
4.4444444444444447E-4 0.0057777777777777775 0.0
4.4444444444444447E-4 0.005888888888888889 0.0
4.4444444444444447E-4 0.006 0.0
4.4444444444444447E-4 0.01711111111111111 0.0
4.4444444444444447E-4 0.028222222222222225 0.0
4.4444444444444447E-4 0.03933333333333333 0.0
4.4444444444444447E-4 0.050444444444444445 0.0
4.4444444444444447E-4 0.06155555555555556 0.0
4.4444444444444447E-4 0.07266666666666667 0.0
4.4444444444444447E-4 0.08377777777777778 0.0
4.4444444444444447E-4 0.0948888888888889 0.0
4.4444444444444447E-4 0.10600000000000001 0.0
4.4444444444444447E-4 0.10611111111111113 0.0
4.4444444444444447E-4 0.10622222222222223 0.0
4.4444444444444447E-4 0.10633333333333335 0.0
4.4444444444444447E-4 0.10644444444444445 0.0
4.4444444444444447E-4 0.10655555555555557 0.0
4.4444444444444447E-4 0.10666666666666667 0.0
4.4444444444444447E-4 0.10677777777777779 0.0
4.4444444444444447E-4 0.1068888888888889 0.0
4.4444444444444447E-4 0.10700000000000001 0.0
5.555555555555556E-4 0.0 0.0
5.555555555555556E-4 3.846153846153846E-4 0.0
5.555555555555556E-4 7.692307692307692E-4 0.0
5.555555555555556E-4 0.0011538461538461537 0.0
5.555555555555556E-4 0.0015384615384615385 0.0
5.555555555555556E-4 0.0019230769230769232 0.0
5.555555555555556E-4 0.0023076923076923075 0.0
5.555555555555556E-4 0.002692307692307692 0.0
5.555555555555556E-4 0.003076923076923077 0.0
5.555555555555556E-4 0.0034615384615384616 0.0
5.555555555555556E-4 0.0038461538461538464 0.0
5.555555555555556E-4 0.004230769230769231 0.0
5.555555555555556E-4 0.004615384615384615 0.0
5.555555555555556E-4 0.005 0.0
5.555555555555556E-4 0.005111111111111111 0.0
5.555555555555556E-4 0.005222222222222223 0.0
5.555555555555556E-4 0.005333333333333333 0.0
5.555555555555556E-4 0.0054444444444444445 0.0
5.555555555555556E-4 0.005555555555555556 0.0
5.555555555555556E-4 0.005666666666666667 0.0
5.555555555555556E-4 0.0057777777777777775 0.0
5.555555555555556E-4 0.005888888888888889 0.0
5.555555555555556E-4 0.006 0.0
5.555555555555556E-4 0.01711111111111111 0.0
5.555555555555556E-4 0.028222222222222225 0.0
5.555555555555556E-4 0.03933333333333333 0.0
5.555555555555556E-4 0.050444444444444445 0.0
5.555555555555556E-4 0.06155555555555556 0.0
[...]
POINT_DATA 1353
SCALARS Temperatura float 1
LOOKUP_TABLE default
125.40532946259478
125.27745669173288
125.14789290337492
125.01659646162274
124.88351456441106
124.74857390982193
124.61167294924797
124.47266776250744
124.33134713297606
124.18737562954318
124.0402172205511
123.8887969702679
123.73160679769661
123.56055306303652
123.37703972459359
123.20430284028394
123.03437839988794
122.8658003887639
122.69759140507675
122.52904188299463
122.35955023736167
122.18856943873492
122.01558394291092
102.53137292472319
102.33302704809512
102.36695437967636
102.35855921273573
102.36087354874084
102.35927502000064
102.36398403644034
102.33901597966957
100.39901441756201
100.38184523783777
100.3648847669844
100.34809211221656
100.3314288216971
100.31486052429038
100.29835811932372
100.2818985320202
100.26546512308482
100.24904786978
125.41168957041751
125.28381141297491
125.15424138977696
125.02293932153114
124.88985250141326
124.7549079728875
124.61800463575946
124.47899986780583
124.33768312290879
124.1937283798903
124.04658318253676
123.89529927364448
123.73791204118707
123.5692371884652
123.39586640436033
123.22416573994278
123.05490174344038
122.88672168766892
122.71881688328516
122.55052630671945
122.3812704489093
122.21051142463467
122.03773673687174
102.54640866187019
102.35038750770899
102.3837109246034
102.37547417985913
102.37774347272146
102.37617090303347
102.38081820503471
102.35608021973252
100.41536871176771
100.39821705816726
100.38127390392276
100.36449731268029
100.34784799024786
100.33129096829843
100.31479678004274
100.29834216303979
100.28191040324393
100.26549145850242
125.41822272836893
125.29034234888681
125.16076923683408
125.0294658541471
124.896380104179
124.7614399383137
124.62454584795098
124.48555808489176
124.34427225648652
124.20037275411174
124.0533329488712
123.90225905460818
123.74522993400608
123.57929221422224
123.41048406008706
123.24208800307237
123.07449632775005
122.90749213571573
122.74052778933981
122.57306504169514
122.40457833917186
122.23455249841551
122.06248133904147
102.5577564976036
102.3687964985935
102.40029208061341
102.39253480286447
102.39466774919738
102.39317386040543
102.39763385958031
102.37359685549875
100.43154764294101
100.41445678037861
100.39757359069256
100.38085291215087
100.36425289659236
100.34773682068581
100.331274193821
100.31484127288229
100.29842118757193
100.28200388028824
125.42492994549144
125.29704936952118
125.16747630756119
125.03617586568278
124.90309710491857
124.76816943731583
124.63129591276932
124.49234158988895
124.35111170377083
124.20730835788092
124.06044757798881
123.90969537826206
123.7534435349486
123.59001329569843
123.42449301841073
123.2589482462776
123.09358010531972
122.9283045763363
122.76281958653742
122.59670771172372
122.42950488612132
122.26072001848544
122.08984842390146
102.56540453034658
102.388258767608
102.41669619276665
102.40974166460663
102.4116461666846
102.41028412126269
102.41443054987901
102.39156702064479
100.44754844671344
100.43056537597231
100.41378814537565
100.39716582259022
100.38065217432221
100.36420766470796
100.34780034421735
100.33140593726702
100.31500752815322
100.29859516508174
125.43181168719963
125.30393238703633
125.17436234517145
125.04306902827484
124.91000306113631
124.77509582896467
124.63825382350366
124.49934864706259
124.35819822436659
124.21452981714529
124.06791103545892
123.91760442079638
123.7623718628475
123.6012449044604
123.43851190215526
123.27559317877186
123.11257102860371
122.9493789984065
122.78580229206375
122.62150980286334
122.45608561648726
122.28905172680138
122.1198889920412
102.56933335325566
102.40878210766161
102.43292051841132
102.42709571971535
102.42867836343797
102.42750205648443
102.43120751649094
102.40999258439017
100.46336638938632
100.44654497885061
100.42992571110197
100.41344862244924
100.39706111305776
100.38072008137361
100.3643921866759
100.34805304339866
100.33168614234087
100.31528195097631
125.43886808492063
125.31099124060589
125.18142699299064
125.05014487939088
124.91709735794814
124.78221823131253
124.645418204694
124.50657686972019
124.36552763796357
124.22202868106088
124.07570793196747
123.92595499889866
123.7718754948464
123.6129180695867
123.45275569655438
123.29236049126345
123.13175662613712
122.97087769277466
122.80955176930968
122.647499893287
122.48433836842993
122.3195842328206
122.15267499339889
102.56951586968728
102.43037741393837
102.44896120948972
102.44459830059478
102.44576382415933
102.44482818461863
102.44796367140404
102.42887622061528
100.47899451637102
100.46239990826157
100.44600005979157
100.42972145172759
100.41350313214214
100.39729854008458
100.38107403510588
100.36480634082692
100.34848028020902
100.33208729418094
125.44609903515492
125.31822565627311
125.18866979286837
125.05740282600443
124.92437921638644
124.7895355408526
124.65278733963584
124.51402334271586
124.3730947250239
124.22979479558576
124.0838199961157
123.93470376753133
123.78184905188867
123.62497917901901
123.4672890531851
123.30938050332635
123.15125765511105
122.99286517967458
122.83406971778177
122.67464230964296
122.514231009925
122.35233410499994
122.1883008099262
102.56591687127927
102.45305880643932
102.46481327599875
102.46225112906443
102.46290187419538
102.46226318171709
102.46469756608711
102.4482215225718
100.49442323339893
100.47813890802853
100.46203423522505
100.44601538349657
100.43001203232245
100.4139764633613
100.39787786220636
100.38169630307526
100.3654193680243
100.34904024716411
125.45350425038629
125.32563523566702
125.19609018053737
125.06484214950278
124.9318477042786
124.7970464531783
124.66035921982278
124.52168469735342
124.3808934234779
124.23781674825409
124.09222577519365
123.94380367042125
123.79220868344159
123.63737321051164
123.48210575159828
123.32667125803671
123.17107923675078
123.01530200297594
122.85925849524995
122.70279216740877
122.54562883396527
122.38725995795663
122.22688643429169
102.55849215400924
102.47684387917758
102.4804705143582
102.4800563381571
102.48009166945464
102.47980789761596
102.4814073385464
102.46803319404557
100.50963960586684
100.49378058900818
100.47806792567279
100.46237842088702
100.44663453107688
100.43079701234453
100.414843193531
100.39875959624084
100.38253828992337
100.36617508809516
125.46108328814765
125.33321945579299
125.20368748272361
125.07246201078162
124.93950174847747
124.80474948795361
124.66813159775221
124.52955720282031
124.38891706859351
124.24608215610874
124.10090154414242
123.95320762923421
123.80288327879146
123.65004080657155
123.49715954793969
123.34418421339691
123.19114587270823
123.0380589892453
122.88491266887578
122.73165672957961
122.57816938955763
122.42417683062752
122.26858409154804
102.54718670315124
102.50175420201361
102.49592536676668
102.49801651349564
102.49733217835693
102.49746338394601
102.49809062199247
102.48831738105572
100.52462613809838
100.50936435389288
100.49417916403137
100.47888115994067
100.46343170132215
100.44781279744204
100.43201619602141
100.41603795155144
100.39987619445455
100.38353011387926
125.46883556978895
125.34097767300989
125.21146091654866
125.0802614555694
124.94734014814968
124.81264301659884
124.67610204205685
124.53763687443265
124.39715862531477
124.25457802229624
124.10982241081113
123.96286982793326
123.81380913174583
123.66291932639713
123.51238168759355
123.36183191321015
123.21133023636823
123.06094094202622
122.9107342828522
122.76078957928104
122.61120027114897
122.46208261264172
106.00598789473732
106.00598789473732
106.00598789473732
106.00598789473732
106.00598789473732
106.00598789473732
106.00598789473732
106.00598789473732
106.00598789473732
106.00598789473732
100.52508047325337
100.51049160177871
100.4956176410309
100.48047710507366
100.46508371159594
100.44944765412185
100.43357633287486
100.4174747919844
100.40114598226104
126.60460835820565
126.47862137679235
126.3542642991512
126.23155740666697
126.11053437070969
125.99124241544857
125.87374250571266
125.7581094038142
125.644431279601
125.53280825310266
125.42334864143821
125.31616064661523
125.21133695594375
125.10893388742574
125.00862803315508
124.90856504720126
124.80874157795799
124.7091532626756
124.6097942019626
124.51065611518362
124.41172697015747
124.31298863225084
106.00598789473732
106.00598789473732
106.00598789473732
106.00598789473732
106.00598789473732
106.00598789473732
106.00598789473732
106.00598789473732
106.00598789473732
106.00598789473732
102.55408231275824
102.53345217713361
102.51334016341556
102.49373957499894
102.47464526334586
102.45605328201765
102.43796068700495
102.4203654167542
102.40326621980535
127.34668372664476
127.22040971343944
127.09487637890113
126.97007604512278
126.84599569287718
126.72261677322709
126.59991495248183
126.47785983031065
126.35641471372789
126.23553661269584
126.11517678965738
125.99528248106327
125.87580049609761
125.75668230572884
125.63865822369749
125.52070101028913
125.40280805458981
125.28497697429083
125.16720575591444
125.04949298099345
124.93183819382585
124.81424253312848
106.00598789473732
106.00598789473732
106.00598789473732
106.00598789473732
106.00598789473732
106.00598789473732
106.00598789473732
106.00598789473732
106.00598789473732
106.00598789473732
102.58005005842477
102.56340524617437
102.5467261108892
102.53001522533489
102.51327462065237
102.49650588098719
102.4797101984816
102.46288840653952
102.4460409999993
127.73995023094918
127.61370912204885
127.48811573239502
127.36317233452581
127.2388826914555
127.11525215581091
126.99228780768131
126.86999862187915
126.74839564403663
126.6274921326291
126.50730357866324
126.38784743622412
126.26914236963982
126.15120710970768
126.03459869613441
125.9181002557628
125.80171318481757
125.68543883269287
125.56927846550509
125.45323320650917
125.33730393840293
125.22149113462737
106.00598789473732
106.00598789473732
106.00598789473732
106.00598789473732
106.00598789473732
106.00598789473732
106.00598789473732
106.00598789473732
106.00598789473732
106.00598789473732
102.5798764349241
102.56222235947162
102.54467630258709
102.5272373517597
102.509904772235
102.49267798094539
102.47555653121536
102.45854010342462
102.4416284993049
127.96131114184001
127.83506790856785
127.70937597698052
127.58423476669691
127.45964320835343
127.33559970311535
127.21210206562446
127.08914745224979
126.96673227938166
126.84485214242649
126.72350175840648
126.60267497654432
126.48236490955573
126.36256416303415
126.24395419155572
126.12542829908047
126.00698584441963
125.8886261932422
125.77034872730194
125.6521528598882
125.53403806153361
125.41600390482526
106.00598789473732
106.00598789473732
106.00598789473732
106.00598789473732
106.00598789473732
106.00598789473732
106.00598789473732
106.00598789473732
106.00598789473732
106.00598789473732
102.57987814261058
102.56248773637216
102.5451675193971
102.52791776956326
102.5107387083892
102.49363050826409
102.4765932967389
102.45962715917449
102.44273214037293
128.07976558221844
127.95352083600137
127.82777580809491
127.70253070783495
127.57778582501788
127.45354154459298
127.32979836758017
127.20655693795847
127.08381807456438
126.9615828054961
126.83985239923231
126.71862838081468
126.59791251896891
126.47770678995003
126.35869910380856
126.23977724993932
126.12094142304886
126.00219181728166
125.88352862395125
125.76495202759119
125.64646219923587
125.52805928454082
106.00598789473732
106.00598789473732
106.00598789473732
106.00598789473732
106.00598789473732
106.00598789473732
106.00598789473732
106.00598789473732
106.00598789473732
106.00598789473732
102.57990224469636
102.56244273149392
102.54506349331061
102.52776442133359
102.5105454241968
102.49340642595422
102.47634736486103
102.45936819261205
102.44246887386831
128.1377322796028
128.01148787942796
127.8857199409928
127.7604284907654
127.63561350402942
127.51127489963699
127.38741253246602
127.2640261835524
127.14111554803858
127.01868022149485
126.89671968609215
126.77523329978919
126.65422029245657
126.5336797672712
126.4143183423127
126.29503908202912
126.17584190137406
126.05672671462402
125.93769343594056
125.81874198041349
125.69987226589735
125.58108421632667
106.00598789473732
106.00598789473732
106.00598789473732
106.00598789473732
106.00598789473732
106.00598789473732
106.00598789473732
106.00598789473732
106.00598789473732
106.00598789473732
102.57989012025779
102.56244905824158
102.54508553073873
102.52779955305719
102.51059113473319
102.49346028013994
102.47640698885937
102.4594312559177
102.44253307193352
128.1550413897488
128.02879668656598
127.9030207245359
127.77771358820512
127.65287535605664
127.52850610353696
127.40460590744013
127.28117485170878
127.15821303464239
127.03572057730865
126.91369763250233
126.7921443927554
126.67106109550616
126.55044802629712
126.43101390252713
126.3116619929742
126.19239233577063
126.07320496937005
125.95409993230595
125.83507726271053
125.71613699743567
125.59727917043355
106.00598789473732
106.00598789473732
106.00598789473732
106.00598789473732
106.00598789473732
106.00598789473732
106.00598789473732
106.00598789473732
106.00598789473732
106.00598789473732
102.5798956364219
102.56244854967595
102.54507990945403
102.5277896830027
102.51057784065833
102.49344435553014
102.47638920330408
102.45941236211742
102.4425138124794
128.13773227960257
128.01148787942768
127.88571994099244
127.76042849076494
127.63561350402873
127.51127489963598
127.3874125324648
127.26402618355104
127.14111554803706
127.01868022149304
126.89671968609
126.77523329978662
126.65422029245357
126.53367976726776
126.4143183423088
126.29503908202483
126.17584190136945
126.05672671461909
125.93769343593533
125.81874198040808
125.69987226589186
125.58108421632107
106.00598789473732
106.00598789473732
106.00598789473732
106.00598789473732
106.00598789473732
106.00598789473732
106.00598789473732
106.00598789473732
106.00598789473732
106.00598789473732
102.57989012024795
102.56244905823176
102.5450855307289
102.52779955304733
102.51059113472328
102.49346028012995
102.47640698884933
102.45943125590767
102.44253307192349
128.07976558222435
127.95352083600731
127.82777580810088
127.702530707841
127.57778582502405
127.4535415445993
127.3297983675865
127.20655693796475
127.08381807457059
126.96158280550236
126.8398523992387
126.71862838082122
126.59791251897562
126.47770678995698
126.35869910381577
126.23977724994671
126.12094142305644
126.00219181728949
125.8835286239592
125.7649520275992
125.64646219924384
125.52805928454876
106.00598789473732
106.00598789473732
106.00598789473732
106.00598789473732
106.00598789473732
106.00598789473732
106.00598789473732
106.00598789473732
106.00598789473732
106.00598789473732
102.57990224466542
102.56244273146282
102.54506349327934
102.52776442130215
102.5105454241652
102.4934064259225
102.47634736482921
102.45936819258019
102.44246887383643
127.96131114184935
127.83506790857722
127.70937597699
127.58423476670646
127.45964320836292
127.33559970312466
127.21210206563374
127.08914745225901
126.9667322793908
126.84485214243536
126.72350175841497
126.60267497655236
126.48236490956332
126.36256416304123
126.24395419156237
126.1254282990868
126.00698584442576
125.88862619324816
125.77034872730776
125.65215285989392
125.53403806153928
125.41600390483087
106.00598789473732
106.00598789473732
106.00598789473732
106.00598789473732
106.00598789473732
106.00598789473732
106.00598789473732
106.00598789473732
106.00598789473732
106.00598789473732
102.57987814260821
102.56248773636982
102.5451675193948
102.527917769561
102.51073870838698
102.49363050826197
102.47659329673682
102.45962715917238
102.44273214037084
127.73995023097062
127.61370912207025
127.48811573241636
127.3631723345471
127.23888269147673
127.11525215583211
126.99228780770244
126.86999862190024
126.74839564405772
126.62749213265026
126.50730357868451
126.3878474362455
126.26914236966122
126.1512071097291
126.0345986961558
125.9181002557842
125.80171318483887
125.68543883271391
125.56927846552598
125.45323320652989
125.3373039384234
125.22149113464764
106.00598789473732
106.00598789473732
106.00598789473732
106.00598789473732
106.00598789473732
106.00598789473732
106.00598789473732
106.00598789473732
106.00598789473732
106.00598789473732
102.57987643491937
102.56222235946683
102.54467630258226
102.52723735175486
102.50990477223014
102.4926779809405
102.47555653121046
102.45854010341976
102.44162849930005
127.34668372667167
127.2204097134664
127.0948763789282
126.97007604514998
126.84599569290455
126.72261677325461
126.59991495250954
126.47785983033846
126.3564147137558
126.23553661272385
126.11517678968549
125.99528248109151
125.87580049612608
125.75668230575756
125.63865822372652
125.52070101031845
125.40280805461937
125.2849769743207
125.1672057559445
125.04949298102368
124.93183819385618
124.8142425331588
106.00598789473732
106.00598789473732
106.00598789473732
106.00598789473732
106.00598789473732
106.00598789473732
106.00598789473732
106.00598789473732
106.00598789473732
106.00598789473732
102.58005005840441
102.56340524615386
102.54672611086859
102.5300152253142
102.51327462063162
102.49650588096642
102.47971019846086
102.46288840651884
102.44604099997863
126.60460835821236
126.47862137679908
126.35426429915792
126.23155740667373
126.11053437071644
125.99124241545523
125.87374250571922
125.7581094038207
125.64443127960747
125.53280825310914
125.42334864144473
125.31616064662177
125.21133695595027
125.10893388743226
125.00862803316153
124.90856504720765
124.80874157796431
124.70915326268174
124.6097942019687
124.51065611518962
124.41172697016329
124.31298863225653
106.00598789473732
106.00598789473732
106.00598789473732
106.00598789473732
106.00598789473732
106.00598789473732
106.00598789473732
106.00598789473732
106.00598789473732
106.00598789473732
102.55408231276013
102.53345217713552
102.51334016341744
102.49373957500082
102.47464526334771
102.4560532820194
102.43796068700658
102.42036541675576
102.40326621980688
125.46883556978952
125.34097767301046
125.21146091654923
125.08026145556983
124.94734014815006
124.8126430165993
124.67610204205748
124.53763687443339
124.39715862531567
124.25457802229727
124.10982241081227
123.96286982793453
123.8138091317472
123.66291932639851
123.51238168759502
123.36183191321174
123.21133023636995
123.06094094202818
122.91073428285422
122.76078957928318
122.61120027115122
122.46208261264404
106.00598789473732
106.00598789473732
106.00598789473732
106.00598789473732
106.00598789473732
106.00598789473732
106.00598789473732
106.00598789473732
106.00598789473732
106.00598789473732
100.52508047323778
100.51049160176323
100.49561764101556
100.48047710505836
100.46508371158072
100.4494476541067
100.43357633285984
100.41747479196941
100.40114598224605
125.46108328814839
125.33321945579365
125.20368748272418
125.072462010782
124.93950174847787
124.80474948795397
124.66813159775286
124.52955720282102
124.38891706859458
124.24608215610971
124.1009015441435
123.9532076292356
123.80288327879299
123.65004080657307
123.49715954794131
123.34418421339856
123.19114587270997
123.0380589892471
122.88491266887769
122.7316567295816
122.57816938955966
122.42417683062965
122.26858409155027
102.54718670316369
102.50175420205736
102.4959253667829
102.49801651351103
102.4973321784173
102.49746338396015
102.4980906219906
102.48831738105842
100.52462613808271
100.50936435387723
100.49417916401582
100.47888115992521
100.46343170130677
100.44781279742672
100.43201619600616
100.41603795153615
100.39987619443939
100.38353011386401
125.45350425038708
125.32563523566768
125.19609018053784
125.06484214950315
124.93184770427902
124.79704645317865
124.66035921982339
124.52168469735426
124.38089342347907
124.23781674825518
124.09222577519469
123.94380367042275
123.79220868344323
123.63737321051323
123.48210575159999
123.3266712580384
123.1710792367525
123.01530200297775
122.85925849525181
122.70279216741066
122.54562883396724
122.3872599579586
122.22688643429377
102.55849215402186
102.47684387922148
102.48047051437439
102.48005633817264
102.48009166951519
102.47980789763007
102.48140733854449
102.46803319404815
100.50963960585099