# vtk DataFile Version 2.0
Niestacjonarne zagadnienie cieplne - ogrzewanie wody w garnku stalowym
ASCII
DATASET UNSTRUCTURED_GRID
POINTS 1353 float
0.0 0.0 0.0
0.0 3.846153846153846E-4 0.0
0.0 7.692307692307692E-4 0.0
0.0 0.0011538461538461537 0.0
0.0 0.0015384615384615385 0.0
0.0 0.0019230769230769232 0.0
0.0 0.0023076923076923075 0.0
0.0 0.002692307692307692 0.0
0.0 0.003076923076923077 0.0
0.0 0.0034615384615384616 0.0
0.0 0.0038461538461538464 0.0
0.0 0.004230769230769231 0.0
0.0 0.004615384615384615 0.0
0.0 0.005 0.0
0.0 0.005111111111111111 0.0
0.0 0.005222222222222223 0.0
0.0 0.005333333333333333 0.0
0.0 0.0054444444444444445 0.0
0.0 0.005555555555555556 0.0
0.0 0.005666666666666667 0.0
0.0 0.0057777777777777775 0.0
0.0 0.005888888888888889 0.0
0.0 0.006 0.0
0.0 0.01711111111111111 0.0
0.0 0.028222222222222225 0.0
0.0 0.03933333333333333 0.0
0.0 0.050444444444444445 0.0
0.0 0.06155555555555556 0.0
0.0 0.07266666666666667 0.0
0.0 0.08377777777777778 0.0
0.0 0.0948888888888889 0.0
0.0 0.10600000000000001 0.0
0.0 0.10611111111111113 0.0
0.0 0.10622222222222223 0.0
0.0 0.10633333333333335 0.0
0.0 0.10644444444444445 0.0
0.0 0.10655555555555557 0.0
0.0 0.10666666666666667 0.0
0.0 0.10677777777777779 0.0
0.0 0.1068888888888889 0.0
0.0 0.10700000000000001 0.0
1.1111111111111112E-4 0.0 0.0
1.1111111111111112E-4 3.846153846153846E-4 0.0
1.1111111111111112E-4 7.692307692307692E-4 0.0
1.1111111111111112E-4 0.0011538461538461537 0.0
1.1111111111111112E-4 0.0015384615384615385 0.0
1.1111111111111112E-4 0.0019230769230769232 0.0
1.1111111111111112E-4 0.0023076923076923075 0.0
1.1111111111111112E-4 0.002692307692307692 0.0
1.1111111111111112E-4 0.003076923076923077 0.0
1.1111111111111112E-4 0.0034615384615384616 0.0
1.1111111111111112E-4 0.0038461538461538464 0.0
1.1111111111111112E-4 0.004230769230769231 0.0
1.1111111111111112E-4 0.004615384615384615 0.0
1.1111111111111112E-4 0.005 0.0
1.1111111111111112E-4 0.005111111111111111 0.0
1.1111111111111112E-4 0.005222222222222223 0.0
1.1111111111111112E-4 0.005333333333333333 0.0
1.1111111111111112E-4 0.0054444444444444445 0.0
1.1111111111111112E-4 0.005555555555555556 0.0
1.1111111111111112E-4 0.005666666666666667 0.0
1.1111111111111112E-4 0.0057777777777777775 0.0
1.1111111111111112E-4 0.005888888888888889 0.0
1.1111111111111112E-4 0.006 0.0
1.1111111111111112E-4 0.01711111111111111 0.0
1.1111111111111112E-4 0.028222222222222225 0.0
1.1111111111111112E-4 0.03933333333333333 0.0
1.1111111111111112E-4 0.050444444444444445 0.0
1.1111111111111112E-4 0.06155555555555556 0.0
1.1111111111111112E-4 0.07266666666666667 0.0
1.1111111111111112E-4 0.08377777777777778 0.0
1.1111111111111112E-4 0.0948888888888889 0.0
1.1111111111111112E-4 0.10600000000000001 0.0
1.1111111111111112E-4 0.10611111111111113 0.0
1.1111111111111112E-4 0.10622222222222223 0.0
1.1111111111111112E-4 0.10633333333333335 0.0
1.1111111111111112E-4 0.10644444444444445 0.0
1.1111111111111112E-4 0.10655555555555557 0.0
1.1111111111111112E-4 0.10666666666666667 0.0
1.1111111111111112E-4 0.10677777777777779 0.0
1.1111111111111112E-4 0.1068888888888889 0.0
1.1111111111111112E-4 0.10700000000000001 0.0
2.2222222222222223E-4 0.0 0.0
2.2222222222222223E-4 3.846153846153846E-4 0.0
2.2222222222222223E-4 7.692307692307692E-4 0.0
2.2222222222222223E-4 0.0011538461538461537 0.0
2.2222222222222223E-4 0.0015384615384615385 0.0
2.2222222222222223E-4 0.0019230769230769232 0.0
2.2222222222222223E-4 0.0023076923076923075 0.0
2.2222222222222223E-4 0.002692307692307692 0.0
2.2222222222222223E-4 0.003076923076923077 0.0
2.2222222222222223E-4 0.0034615384615384616 0.0
2.2222222222222223E-4 0.0038461538461538464 0.0
2.2222222222222223E-4 0.004230769230769231 0.0
2.2222222222222223E-4 0.004615384615384615 0.0
2.2222222222222223E-4 0.005 0.0
2.2222222222222223E-4 0.005111111111111111 0.0
2.2222222222222223E-4 0.005222222222222223 0.0
2.2222222222222223E-4 0.005333333333333333 0.0
2.2222222222222223E-4 0.0054444444444444445 0.0
2.2222222222222223E-4 0.005555555555555556 0.0
2.2222222222222223E-4 0.005666666666666667 0.0
2.2222222222222223E-4 0.0057777777777777775 0.0
2.2222222222222223E-4 0.005888888888888889 0.0
2.2222222222222223E-4 0.006 0.0
2.2222222222222223E-4 0.01711111111111111 0.0
2.2222222222222223E-4 0.028222222222222225 0.0
2.2222222222222223E-4 0.03933333333333333 0.0
2.2222222222222223E-4 0.050444444444444445 0.0
2.2222222222222223E-4 0.06155555555555556 0.0
2.2222222222222223E-4 0.07266666666666667 0.0
2.2222222222222223E-4 0.08377777777777778 0.0
2.2222222222222223E-4 0.0948888888888889 0.0
2.2222222222222223E-4 0.10600000000000001 0.0
2.2222222222222223E-4 0.10611111111111113 0.0
2.2222222222222223E-4 0.10622222222222223 0.0
2.2222222222222223E-4 0.10633333333333335 0.0
2.2222222222222223E-4 0.10644444444444445 0.0
2.2222222222222223E-4 0.10655555555555557 0.0
2.2222222222222223E-4 0.10666666666666667 0.0
2.2222222222222223E-4 0.10677777777777779 0.0
2.2222222222222223E-4 0.1068888888888889 0.0
2.2222222222222223E-4 0.10700000000000001 0.0
3.333333333333334E-4 0.0 0.0
3.333333333333334E-4 3.846153846153846E-4 0.0
3.333333333333334E-4 7.692307692307692E-4 0.0
3.333333333333334E-4 0.0011538461538461537 0.0
3.333333333333334E-4 0.0015384615384615385 0.0
3.333333333333334E-4 0.0019230769230769232 0.0
3.333333333333334E-4 0.0023076923076923075 0.0
3.333333333333334E-4 0.002692307692307692 0.0
3.333333333333334E-4 0.003076923076923077 0.0
3.333333333333334E-4 0.0034615384615384616 0.0
3.333333333333334E-4 0.0038461538461538464 0.0
3.333333333333334E-4 0.004230769230769231 0.0
3.333333333333334E-4 0.004615384615384615 0.0
3.333333333333334E-4 0.005 0.0
3.333333333333334E-4 0.005111111111111111 0.0
3.333333333333334E-4 0.005222222222222223 0.0
3.333333333333334E-4 0.005333333333333333 0.0
3.333333333333334E-4 0.0054444444444444445 0.0
3.333333333333334E-4 0.005555555555555556 0.0
3.333333333333334E-4 0.005666666666666667 0.0
3.333333333333334E-4 0.0057777777777777775 0.0
3.333333333333334E-4 0.005888888888888889 0.0
3.333333333333334E-4 0.006 0.0
3.333333333333334E-4 0.01711111111111111 0.0
3.333333333333334E-4 0.028222222222222225 0.0
3.333333333333334E-4 0.03933333333333333 0.0
3.333333333333334E-4 0.050444444444444445 0.0
3.333333333333334E-4 0.06155555555555556 0.0
3.333333333333334E-4 0.07266666666666667 0.0
3.333333333333334E-4 0.08377777777777778 0.0
3.333333333333334E-4 0.0948888888888889 0.0
3.333333333333334E-4 0.10600000000000001 0.0
3.333333333333334E-4 0.10611111111111113 0.0
3.333333333333334E-4 0.10622222222222223 0.0
3.333333333333334E-4 0.10633333333333335 0.0
3.333333333333334E-4 0.10644444444444445 0.0
3.333333333333334E-4 0.10655555555555557 0.0
3.333333333333334E-4 0.10666666666666667 0.0
3.333333333333334E-4 0.10677777777777779 0.0
3.333333333333334E-4 0.1068888888888889 0.0
3.333333333333334E-4 0.10700000000000001 0.0
4.4444444444444447E-4 0.0 0.0
4.4444444444444447E-4 3.846153846153846E-4 0.0
4.4444444444444447E-4 7.692307692307692E-4 0.0
4.4444444444444447E-4 0.0011538461538461537 0.0
4.4444444444444447E-4 0.0015384615384615385 0.0
4.4444444444444447E-4 0.0019230769230769232 0.0
4.4444444444444447E-4 0.0023076923076923075 0.0
4.4444444444444447E-4 0.002692307692307692 0.0
4.4444444444444447E-4 0.003076923076923077 0.0
4.4444444444444447E-4 0.0034615384615384616 0.0
4.4444444444444447E-4 0.0038461538461538464 0.0
4.4444444444444447E-4 0.004230769230769231 0.0
4.4444444444444447E-4 0.004615384615384615 0.0
4.4444444444444447E-4 0.005 0.0
4.4444444444444447E-4 0.005111111111111111 0.0
4.4444444444444447E-4 0.005222222222222223 0.0
4.4444444444444447E-4 0.005333333333333333 0.0
4.4444444444444447E-4 0.0054444444444444445 0.0
4.4444444444444447E-4 0.005555555555555556 0.0
4.4444444444444447E-4 0.005666666666666667 0.0
4.4444444444444447E-4 0.0057777777777777775 0.0
4.4444444444444447E-4 0.005888888888888889 0.0
4.4444444444444447E-4 0.006 0.0
4.4444444444444447E-4 0.01711111111111111 0.0
4.4444444444444447E-4 0.028222222222222225 0.0
4.4444444444444447E-4 0.03933333333333333 0.0
4.4444444444444447E-4 0.050444444444444445 0.0
4.4444444444444447E-4 0.06155555555555556 0.0
4.4444444444444447E-4 0.07266666666666667 0.0
4.4444444444444447E-4 0.08377777777777778 0.0
4.4444444444444447E-4 0.0948888888888889 0.0
4.4444444444444447E-4 0.10600000000000001 0.0
4.4444444444444447E-4 0.10611111111111113 0.0
4.4444444444444447E-4 0.10622222222222223 0.0
4.4444444444444447E-4 0.10633333333333335 0.0
4.4444444444444447E-4 0.10644444444444445 0.0
4.4444444444444447E-4 0.10655555555555557 0.0
4.4444444444444447E-4 0.10666666666666667 0.0
4.4444444444444447E-4 0.10677777777777779 0.0
4.4444444444444447E-4 0.1068888888888889 0.0
4.4444444444444447E-4 0.10700000000000001 0.0
5.555555555555556E-4 0.0 0.0
5.555555555555556E-4 3.846153846153846E-4 0.0
5.555555555555556E-4 7.692307692307692E-4 0.0
5.555555555555556E-4 0.0011538461538461537 0.0
5.555555555555556E-4 0.0015384615384615385 0.0
5.555555555555556E-4 0.0019230769230769232 0.0
5.555555555555556E-4 0.0023076923076923075 0.0
5.555555555555556E-4 0.002692307692307692 0.0
5.555555555555556E-4 0.003076923076923077 0.0
5.555555555555556E-4 0.0034615384615384616 0.0
5.555555555555556E-4 0.0038461538461538464 0.0
5.555555555555556E-4 0.004230769230769231 0.0
5.555555555555556E-4 0.004615384615384615 0.0
5.555555555555556E-4 0.005 0.0
5.555555555555556E-4 0.005111111111111111 0.0
5.555555555555556E-4 0.005222222222222223 0.0
5.555555555555556E-4 0.005333333333333333 0.0
5.555555555555556E-4 0.0054444444444444445 0.0
5.555555555555556E-4 0.005555555555555556 0.0
5.555555555555556E-4 0.005666666666666667 0.0
5.555555555555556E-4 0.0057777777777777775 0.0
5.555555555555556E-4 0.005888888888888889 0.0
5.555555555555556E-4 0.006 0.0
5.555555555555556E-4 0.01711111111111111 0.0
5.555555555555556E-4 0.028222222222222225 0.0
5.555555555555556E-4 0.03933333333333333 0.0
5.555555555555556E-4 0.050444444444444445 0.0
5.555555555555556E-4 0.06155555555555556 0.0
[...]
POINT_DATA 1353
SCALARS Temperatura float 1
LOOKUP_TABLE default
97.61507826578274
97.48162398260163
97.34676873668175
97.21047407515985
97.07269277699491
96.93336014718248
96.79238749911437
96.64965056645146
96.50496909172804
96.3580610622827
96.20847878095888
96.05534564498826
95.89740226043818
95.72845018686704
95.55009309596679
95.37947074030313
95.21069880923072
95.04264005423784
94.87450901811309
94.70571031389109
94.53572216695544
94.36405862096393
94.1902547793384
74.43069806698182
74.22645882724466
74.26152072611029
74.25288281582564
74.25517489685818
74.253910340779
74.25715784245325
74.24043506871
72.92897853381052
72.91752670097259
72.90622404907091
72.89504563931087
72.88396801048366
72.87297018459546
72.8620343966258
72.8511465579254
72.84029650745508
72.82947812282073
97.61977619998179
97.48631615461271
97.3514542288894
97.2151534153446
97.07736656554516
96.93802927792278
96.79705323953976
96.6543152165505
96.50963559962334
96.36273956392182
96.21316801122649
96.06013814989845
95.90205915561852
95.73486353498778
95.56394256841745
95.39409895078259
95.22583333385664
95.058091736197
94.8902122278925
94.72163470980887
94.55185290127608
94.38038643090418
94.20677116102691
74.43996273526008
74.23808891955171
74.27253670299145
74.26405950528738
74.26630713331726
74.26506384543265
74.26826841840428
74.25170238297653
72.93976200267929
72.9283206451034
72.91702835400464
72.90585955068737
72.89479025734009
72.88379912966131
72.87286817803972
72.86198319871808
72.85113398483419
72.84031440211668
97.624631206527
97.4911684770522
97.35630275822777
97.21999965109411
97.08221254597595
96.94287780944961
96.80190843381848
96.6591835354425
96.514528475192
96.36767695799755
96.21819057431536
96.06532990849583
95.90754289232511
95.742404946581
95.57489546776013
95.40754883899889
95.24059394830115
95.07380877906687
94.90672290064205
94.7388654926832
94.56976784145488
94.39896282337267
94.22598634991948
74.44549064049836
74.25080230704886
74.2833912292959
74.27540045887919
74.27751352910886
74.27633468842957
74.27940898507046
74.26332036736328
72.95046399564457
72.93905947755464
72.92780355261858
72.91666866433906
72.90562926848392
72.89466294412942
72.88375107352468
72.87287915805912
72.86203689512556
72.85121814108936
97.62964431410325
97.49618084032934
97.36131421068919
97.22501261673598
97.08723049082482
96.94790542956636
96.80695252809133
96.66425482279354
96.51964548092472
96.372872649599
96.22353203967846
96.07093374889612
95.91376578624883
95.75055577102162
95.58557899414016
95.42045539015227
95.25527730081373
95.08992249232594
94.92410152604752
94.75743147590168
94.58948559727267
94.41980854551066
94.24792901269146
74.4472703501251
74.26460364193488
74.29408267490807
74.28690625408284
74.28879389455616
74.287723048725
74.29057925046544
74.27528976336616
72.96108279379644
72.94974376987554
72.93855226861514
72.92747719500314
72.9164903149519
72.90556748176769
72.89468918240206
72.8838405916729
72.87301137942043
72.86219546719833
97.63481602135386
97.50135319104851
97.3664883680525
97.23019203196478
97.0924200226724
96.95311159804372
96.81218468339968
96.66952764762472
96.52498397122308
96.37832220762112
96.22917973839834
96.07694504839284
95.92059203059446
95.75919618698875
95.59643588609381
95.43342475264599
95.2701732152644
95.10657627061606
94.94241127954247
94.77735880273475
94.61102365768949
94.44295143730227
94.27264695199366
74.44528320252918
74.27950056602955
74.30460833364283
74.29857783474431
74.3001479016953
74.2992292109613
74.30177871664287
74.28761178446544
72.97161545118098
72.960374786113
72.94927945096894
72.93829281269531
72.9273827307523
72.91652286920754
72.90569286086799
72.89487781350512
72.88406764716395
72.87325654116255
97.64014650634833
97.50668541666425
97.37182492752629
97.2355375002069
97.09778061647484
96.95849557036749
96.81760375215379
96.67500004336343
96.53054051361714
96.38401877362165
96.23512113972068
96.08333854214973
95.92791495779838
95.76826703731201
95.60760944560779
95.44668483041909
95.28546827915638
95.12386172881837
94.96167966994624
94.79864360296743
94.63437895331862
94.4684161966516
94.30020794407457
74.4395030659038
74.29550378197737
74.31496440161759
74.31041651796916
74.31157508128058
74.3108535694209
74.31300666771935
74.3002881585752
72.98205764053105
72.97095510810776
72.95999347812742
72.949127804906
72.93832081766456
72.92754405311766
72.91677695926161
72.90600532679362
72.89521989463292
72.88441544015588
97.64563572538877
97.51217730503276
97.3773234996553
97.24104851189522
97.10331160610376
96.96405641338129
96.82320830110653
96.68066960314152
96.5363108276243
96.38995408871038
96.24134131741037
96.09007952362094
95.93565168445991
95.77771799394111
95.61912875976914
95.46030546869657
95.30121819254585
95.14178713695078
94.98186515668874
94.82121876019036
94.65949793265479
94.49620663668969
94.33070147220695
74.42989585020614
74.31262719325491
74.32514593614837
74.32242400673265
74.32307481759952
74.32259663456185
74.32426215010557
74.31332119843914
72.99240339659336
72.9814899999824
72.97070838771765
72.96000114515208
72.94932523132314
72.93865145386147
72.92796100607794
72.91724173881036
72.90648608585532
72.89568989866329
97.65128346360935
97.51782853275341
97.3829836030642
97.24672444828431
97.1090121929482
96.96979302209391
96.82899665100345
96.68653354156207
96.54228994252155
96.39611884637416
96.247822786475
96.0971301297524
95.94373416257454
95.78749561984777
95.63096705826183
95.47426800596018
95.31738456911785
95.16027092239649
95.00283398872912
94.84491086684888
94.68622534619982
94.52626854762306
94.36424216432897
74.41641855508347
74.3308881713243
74.33514677946718
74.3346024125162
74.33464633960006
74.33445904380068
74.33554393980835
74.32671391877999
73.00264468722997
72.99199071470467
72.98144836653202
72.97094220936484
72.96042453628439
72.94987144634216
72.93926914198144
72.9286094341941
72.91788751144814
72.90710083532578
97.65708936368492
97.52363866452593
97.38880466086998
97.25256458526313
97.11488145565492
96.97570413987603
96.83496691919572
96.6925887695595
96.54847238865251
96.40250293467211
96.25454623096286
96.1044521621964
95.95210300312056
95.79754169549248
95.64306491718206
95.48849941762128
95.3338610898611
95.17915175751813
95.02435094006394
94.86940183575877
94.7141784560184
94.55840523092772
94.40097665534245
74.39901739171799
74.3503080740458
74.34495941387459
74.34695429712154
74.34628870519718
74.34644157988784
74.34685048659544
74.34047023756892
73.01277067347075
73.00248060252291
72.99226143595861
72.9819942162426
72.97165608197507
72.96123617872205
72.95072955906593
72.94013388249016
72.929448055953
72.91867161206598
97.66305294420592
97.52960715665102
97.39478599932147
97.25856809727513
97.120918360733
96.9817883808176
96.84111706430883
96.69883198225176
96.55485238461405
96.40909573142588
96.26149138071615
96.11200816333073
95.96070385927614
95.8077946041015
95.65534417564353
95.50289420323594
95.3504967807114
95.1982085377269
95.04609272356424
94.89422239695024
94.74268549402824
94.59159347393293
76.99108122827653
76.99108122827653
76.99108122827653
76.99108122827653
76.99108122827653
76.99108122827653
76.99108122827653
76.99108122827653
76.99108122827653
76.99108122827653
73.0130791729735
73.00322332301974
72.99321471598931
72.98306484294085
72.97278223965722
72.96237325799366
72.9518425134001
72.94119315297897
72.93042701669856
98.60028280595189
98.46848716006102
98.33824358430279
98.20957012488326
98.08249672432106
97.95706537048383
97.83333028346756
97.71135801326488
97.59122719120576
97.47302743174589
97.35685638863266
97.24281311465171
97.13098547963685
97.02143200419953
96.91395850043065
96.80672703880984
96.69973506011803
96.59297885952104
96.4864530175748
96.38014953287713
96.2740564484731
96.16815551503781
76.99108122827653
76.99108122827653
76.99108122827653
76.99108122827653
76.99108122827653
76.99108122827653
76.99108122827653
76.99108122827653
76.99108122827653
76.99108122827653
74.38522703197496
74.37123659550127
74.35764058242968
74.34443471761303
74.33161569686295
74.31918097704975
74.30712865375222
74.29545738763294
74.28416635999564
99.21770840263963
99.08565887884114
98.95439092671114
98.82389777496064
98.69416792441761
98.56518497963923
98.43692741717788
98.30936832267922
98.18247516382266
98.05620973312443
97.9305285295317
97.80538408351825
97.68072784926194
97.55651460963978
97.43348210569184
97.3105333132545
97.18766581088887
97.06487744565503
96.94216648501016
96.81953184915533
96.69697347980608
96.57449296826755
76.99108122827653
76.99108122827653
76.99108122827653
76.99108122827653
76.99108122827653
76.99108122827653
76.99108122827653
76.99108122827653
76.99108122827653
76.99108122827653
74.40255931116151
74.3912753791916
74.38001141130312
74.36876907091107
74.35754967518082
74.34635425251882
74.3351835763246
74.32403818544684
74.31291839660297
99.54363173466496
99.41161158749374
99.2803003764652
99.14970015345766
99.01981429778104
98.8906476044611
98.76220640800084
98.63449873422941
98.50753446374246
98.3813254724605
98.25588567814812
98.13123085700775
98.00737805931206
97.88434462958774
97.76270742151084
97.64119402866083
97.51980573734956
97.39854377506886
97.27740927080653
97.15640319368455
97.03552625484802
96.91477873956255
76.99108122827653
76.99108122827653
76.99108122827653
76.99108122827653
76.99108122827653
76.99108122827653
76.99108122827653
76.99108122827653
76.99108122827653
76.99108122827653
74.40243420786472
74.39046449779993
74.37861127956182
74.36687394484224
74.35525200022161
74.34374505129598
74.33235279326485
74.32107500517047
74.3099115463733
99.72713687089158
99.59511481830158
99.46372142815065
99.33295621743903
99.20281827151572
99.07330620805453
98.9444181260247
98.81615154107463
98.68850331104967
98.56146956010646
98.43504561977119
98.30922602295728
98.18400459716757
98.0593746570608
97.93602114173461
97.81276860907116
97.68961648600775
97.56656421011908
97.44361123976593
97.3207570700818
97.19800125885624
97.07534347120257
76.99108122827653
76.99108122827653
76.99108122827653
76.99108122827653
76.99108122827653
76.99108122827653
76.99108122827653
76.99108122827653
76.99108122827653
76.99108122827653
74.402435344088
74.390644782653
74.37894506106795
74.36733635406911
74.35581879964882
74.34439250347037
74.3330575415178
74.32181396173662
74.31066178504678
99.82521801970883
99.69319466493246
99.5617571776003
99.43090577519413
99.30064074816657
99.17096247300732
99.0418714309178
98.91336823193404
98.78545364377963
98.65812862350256
98.53139434730534
98.4052522291684
98.27970391594039
98.1547512586536
98.03108316150005
97.90751794030493
97.784055777859
97.6606968552527
97.53744134933729
97.41428942860811
97.29124124641304
97.16829692908443
76.99108122827653
76.99108122827653
76.99108122827653
76.99108122827653
76.99108122827653
76.99108122827653
76.99108122827653
76.99108122827653
76.99108122827653
76.99108122827653
74.4024516600144
74.39061414472513
74.37887430832568
74.36723206971523
74.35568735919313
74.34424011721697
74.3328902936469
74.32163784727148
74.31048274551208
99.87319237183712
99.74116933106254
99.60971296144889
99.47882331714847
99.34850040758057
99.2187441927628
99.08955457657919
98.96093139793967
98.8328744199168
98.70538331727172
98.57845766352
98.45209692006503
98.326300430802
98.20106742222438
98.07710267202981
97.95323763748344
97.82947224754169
97.70580643088509
97.58224011656628
97.45877323511026
97.33540572038117
97.21213751290473
76.99108122827653
76.99108122827653
76.99108122827653
76.99108122827653
76.99108122827653
76.99108122827653
76.99108122827653
76.99108122827653
76.99108122827653
76.99108122827653
74.40244340913677
74.39061843011719
74.3788892716991
74.36725593523725
74.35571841825943
74.34427671484107
74.33293081583695
74.3216807090286
74.31052637921741
99.88751183636653
99.75548853087389
99.62402548250763
99.49312279697578
99.36278057524206
99.23299891621798
99.10377792067204
98.97511769641912
98.8470183648018
98.71948006832447
98.5925029789411
98.46608730581282
98.34023330090253
98.21494126243283
98.09091757762748
97.96699369881222
97.8431696659795
97.71944551923467
97.59582129850764
97.4722970430388
97.34887279048006
97.22554857526714
76.99108122827653
76.99108122827653
76.99108122827653
76.99108122827653
76.99108122827653
76.99108122827653
76.99108122827653
76.99108122827653
76.99108122827653
76.99108122827653
74.40244715177472
74.39061807942727
74.37888544609763
74.36724922111003
74.35570937579911
74.34426588331401
74.33291871849576
74.3216678577985
74.3105132792393
99.87319237183685
99.74116933106224
99.60971296144854
99.47882331714804
99.34850040757999
99.21874419276197
99.08955457657818
98.96093139793855
98.83287441991557
98.70538331727028
98.57845766351828
98.45209692006298
98.32630043079962
98.20106742222168
98.07710267202677
97.95323763748009
97.82947224753806
97.70580643088121
97.58224011656219
97.45877323510601
97.33540572037684
97.21213751290031
76.99108122827653
76.99108122827653
76.99108122827653
76.99108122827653
76.99108122827653
76.99108122827653
76.99108122827653
76.99108122827653
76.99108122827653
76.99108122827653
74.40244340912963
74.39061843011004
74.37888927169193
74.36725593523008
74.35571841825222
74.34427671483382
74.33293081582968
74.32168070902134
74.31052637921013
99.82521801971335
99.693194664937
99.56175717760485
99.43090577519874
99.30064074817125
99.17096247301211
99.04187143092261
98.91336823193882
98.78545364378436
98.65812862350731
98.53139434731018
98.40525222917337
98.27970391594548
98.15475125865889
98.03108316150552
97.90751794031056
97.78405577786476
97.66069685525868
97.53744134934337
97.41428942861427
97.29124124641916
97.16829692909054
76.99108122827653
76.99108122827653
76.99108122827653
76.99108122827653
76.99108122827653
76.99108122827653
76.99108122827653
76.99108122827653
76.99108122827653
76.99108122827653
74.40245165999187
74.39061414470251
74.37887430830295
74.36723206969236
74.35568735917012
74.34424011719386
74.3328902936237
74.32163784724825
74.31048274548887
99.72713687089869
99.5951148183087
99.46372142815785
99.33295621744628
99.20281827152294
99.07330620806162
98.94441812603175
98.81615154108164
98.6885033110566
98.56146956011322
98.43504561977767
98.30922602296341
98.18400459717336
98.05937465706623
97.93602114173973
97.81276860907603
97.68961648601247
97.56656421012367
97.44361123977042
97.3207570700862
97.19800125886061
97.0753434712069
76.99108122827653
76.99108122827653
76.99108122827653
76.99108122827653
76.99108122827653
76.99108122827653
76.99108122827653
76.99108122827653
76.99108122827653
76.99108122827653
74.40243534408638
74.39064478265139
74.37894506106636
74.36733635406756
74.35581879964731
74.34439250346892
74.3330575415164
74.3218139617352
74.31066178504535
99.5436317346816
99.41161158751035
99.28030037648178
99.14970015347419
99.01981429779752
98.89064760447754
98.7622064080172
98.63449873424571
98.50753446375876
98.38132547247683
98.25588567816452
98.1312308570242
98.00737805932856
97.88434462960426
97.76270742152732
97.6411940286773
97.51980573736594
97.39854377508505
97.27740927082262
97.1564031937005
97.03552625486377
96.91477873957815
76.99108122827653
76.99108122827653
76.99108122827653
76.99108122827653
76.99108122827653
76.99108122827653
76.99108122827653
76.99108122827653
76.99108122827653
76.99108122827653
74.40243420786126
74.39046449779643
74.37861127955829
74.36687394483869
74.35525200021803
74.34374505129237
74.33235279326122
74.32107500516686
74.30991154636972
99.21770840266052
99.08565887886205
98.95439092673213
98.82389777498173
98.69416792443882
98.56518497966056
98.43692741719934
98.30936832270078
98.18247516384429
98.05620973314613
97.93052852955347
97.80538408354012
97.68072784928397
97.55651460966197
97.43348210571428
97.31053331327715
97.18766581091172
97.06487744567814
96.94216648503341
96.81953184917872
96.69697347982955
96.57449296829103
76.99108122827653
76.99108122827653
76.99108122827653
76.99108122827653
76.99108122827653
76.99108122827653
76.99108122827653
76.99108122827653
76.99108122827653
76.99108122827653
74.40255931114679
74.39127537917679
74.38001141128822
74.36876907089611
74.35754967516584
74.34635425250383
74.33518357630963
74.32403818543193
74.31291839658806
98.60028280595711
98.46848716006623
98.33824358430802
98.20957012488851
98.08249672432632
97.957065370489
97.83333028347265
97.71135801326992
97.59122719121078
97.47302743175091
97.35685638863774
97.24281311465677
97.13098547964188
97.02143200420454
96.91395850043561
96.80672703881477
96.69973506012292
96.59297885952577
96.48645301757952
96.38014953288177
96.27405644847762
96.16815551504224
76.99108122827653
76.99108122827653
76.99108122827653
76.99108122827653
76.99108122827653
76.99108122827653
76.99108122827653
76.99108122827653
76.99108122827653
76.99108122827653
74.38522703197634
74.37123659550265
74.35764058243105
74.3444347176144
74.33161569686432
74.31918097705103
74.30712865375342
74.29545738763407
74.28416635999676
97.66305294420643
97.52960715665154
97.39478599932195
97.25856809727549
97.12091836073333
96.98178838081803
96.84111706430939
96.69883198225237
96.55485238461476
96.4090957314267
96.26149138071702
96.11200816333172
95.96070385927722
95.80779460410265
95.65534417564473
95.50289420323723
95.35049678071277
95.19820853772848
95.04609272356585
94.89422239695189
94.74268549402994
94.59159347393468
76.99108122827653
76.99108122827653
76.99108122827653
76.99108122827653
76.99108122827653
76.99108122827653
76.99108122827653
76.99108122827653
76.99108122827653
76.99108122827653
73.01307917296235
73.00322332300867
72.99321471597834
72.9830648429299
72.97278223964632
72.96237325798282
72.95184251338934
72.94119315296825
72.93042701668784
97.65708936368547
97.52363866452649
97.38880466087039
97.25256458526349
97.11488145565528
96.97570413987644
96.83496691919633
96.69258876956022
96.54847238865327
96.40250293467301
96.25454623096378
96.10445216219765
95.95210300312174
95.79754169549379
95.64306491718334
95.4884994176226
95.33386108986247
95.1791517575196
95.02435094006547
94.86940183576034
94.71417845602001
94.55840523092945
94.4009766553442
74.39901739172676
74.35030807407743
74.34495941388643
74.3469542971327
74.3462887052407
74.34644157989796
74.34685048659397
74.34047023757098
73.01277067345951
73.00248060251165
72.9922614359474
72.98199421623148
72.97165608196403
72.96123617871102
72.95072955905496
72.94013388247924
72.92944805594207
72.91867161205505
97.65128346360997
97.51782853275395
97.38298360306467
97.24672444828465
97.10901219294863
96.96979302209431
96.82899665100412
96.68653354156278
96.54228994252242
96.39611884637512
96.24782278647596
96.09713012975364
95.94373416257591
95.78749561984907
95.63096705826324
95.47426800596162
95.3173845691192
95.16027092239793
95.00283398873063
94.84491086685051
94.68622534620143
94.52626854762472
94.36424216433078
74.41641855509232
74.33088817135598
74.335146779479
74.3346024125274
74.3346463396438
74.33445904381072
74.33554393980685
74.32671391878195
73.00264468721859
72.99199071469336
72.98144836652077
72.97094220935362
72.96042453627322
72.94987144633104
72.93926914197036
72.928609434183
72.91788751143706
72.9071008353147
97.6456357253895
97.51217730503333
97.37732349965589
97.24104851189556
97.10331160610426
96.96405641338168
96.82320830110719
96.68066960314232
96.53631082762529
96.38995408871145
96.24134131741137
96.09007952362231
95.93565168446132
95.7777179939425
95.61912875977059
95.46030546869797
95.30121819254731
95.1417871369523
94.98186515669028
94.82121876019195
94.65949793265642
94.49620663669138
94.33070147220857
74.42989585021512
74.31262719328674
74.32514593616023
74.322424006744
74.32307481764342
74.32259663457192
74.32426215010406
74.31332119844106
72.9924033965819
72.981489999971
72.97070838770631
72.96000114514078
72.94932523131192
72.93865145385028
72.92796100606675
72.91724173879916
72.90648608584416
72.89568989865211
97.64014650634901
97.5066854166648
97.37182492752686
97.23553750020737
97.09778061647533
96.95849557036789
96.81760375215437
96.67500004336442
96.53054051361823