# vtk DataFile Version 2.0
Niestacjonarne zagadnienie cieplne - ogrzewanie wody w garnku stalowym
ASCII
DATASET UNSTRUCTURED_GRID
POINTS 1353 float
0.0 0.0 0.0
0.0 3.846153846153846E-4 0.0
0.0 7.692307692307692E-4 0.0
0.0 0.0011538461538461537 0.0
0.0 0.0015384615384615385 0.0
0.0 0.0019230769230769232 0.0
0.0 0.0023076923076923075 0.0
0.0 0.002692307692307692 0.0
0.0 0.003076923076923077 0.0
0.0 0.0034615384615384616 0.0
0.0 0.0038461538461538464 0.0
0.0 0.004230769230769231 0.0
0.0 0.004615384615384615 0.0
0.0 0.005 0.0
0.0 0.005111111111111111 0.0
0.0 0.005222222222222223 0.0
0.0 0.005333333333333333 0.0
0.0 0.0054444444444444445 0.0
0.0 0.005555555555555556 0.0
0.0 0.005666666666666667 0.0
0.0 0.0057777777777777775 0.0
0.0 0.005888888888888889 0.0
0.0 0.006 0.0
0.0 0.01711111111111111 0.0
0.0 0.028222222222222225 0.0
0.0 0.03933333333333333 0.0
0.0 0.050444444444444445 0.0
0.0 0.06155555555555556 0.0
0.0 0.07266666666666667 0.0
0.0 0.08377777777777778 0.0
0.0 0.0948888888888889 0.0
0.0 0.10600000000000001 0.0
0.0 0.10611111111111113 0.0
0.0 0.10622222222222223 0.0
0.0 0.10633333333333335 0.0
0.0 0.10644444444444445 0.0
0.0 0.10655555555555557 0.0
0.0 0.10666666666666667 0.0
0.0 0.10677777777777779 0.0
0.0 0.1068888888888889 0.0
0.0 0.10700000000000001 0.0
1.1111111111111112E-4 0.0 0.0
1.1111111111111112E-4 3.846153846153846E-4 0.0
1.1111111111111112E-4 7.692307692307692E-4 0.0
1.1111111111111112E-4 0.0011538461538461537 0.0
1.1111111111111112E-4 0.0015384615384615385 0.0
1.1111111111111112E-4 0.0019230769230769232 0.0
1.1111111111111112E-4 0.0023076923076923075 0.0
1.1111111111111112E-4 0.002692307692307692 0.0
1.1111111111111112E-4 0.003076923076923077 0.0
1.1111111111111112E-4 0.0034615384615384616 0.0
1.1111111111111112E-4 0.0038461538461538464 0.0
1.1111111111111112E-4 0.004230769230769231 0.0
1.1111111111111112E-4 0.004615384615384615 0.0
1.1111111111111112E-4 0.005 0.0
1.1111111111111112E-4 0.005111111111111111 0.0
1.1111111111111112E-4 0.005222222222222223 0.0
1.1111111111111112E-4 0.005333333333333333 0.0
1.1111111111111112E-4 0.0054444444444444445 0.0
1.1111111111111112E-4 0.005555555555555556 0.0
1.1111111111111112E-4 0.005666666666666667 0.0
1.1111111111111112E-4 0.0057777777777777775 0.0
1.1111111111111112E-4 0.005888888888888889 0.0
1.1111111111111112E-4 0.006 0.0
1.1111111111111112E-4 0.01711111111111111 0.0
1.1111111111111112E-4 0.028222222222222225 0.0
1.1111111111111112E-4 0.03933333333333333 0.0
1.1111111111111112E-4 0.050444444444444445 0.0
1.1111111111111112E-4 0.06155555555555556 0.0
1.1111111111111112E-4 0.07266666666666667 0.0
1.1111111111111112E-4 0.08377777777777778 0.0
1.1111111111111112E-4 0.0948888888888889 0.0
1.1111111111111112E-4 0.10600000000000001 0.0
1.1111111111111112E-4 0.10611111111111113 0.0
1.1111111111111112E-4 0.10622222222222223 0.0
1.1111111111111112E-4 0.10633333333333335 0.0
1.1111111111111112E-4 0.10644444444444445 0.0
1.1111111111111112E-4 0.10655555555555557 0.0
1.1111111111111112E-4 0.10666666666666667 0.0
1.1111111111111112E-4 0.10677777777777779 0.0
1.1111111111111112E-4 0.1068888888888889 0.0
1.1111111111111112E-4 0.10700000000000001 0.0
2.2222222222222223E-4 0.0 0.0
2.2222222222222223E-4 3.846153846153846E-4 0.0
2.2222222222222223E-4 7.692307692307692E-4 0.0
2.2222222222222223E-4 0.0011538461538461537 0.0
2.2222222222222223E-4 0.0015384615384615385 0.0
2.2222222222222223E-4 0.0019230769230769232 0.0
2.2222222222222223E-4 0.0023076923076923075 0.0
2.2222222222222223E-4 0.002692307692307692 0.0
2.2222222222222223E-4 0.003076923076923077 0.0
2.2222222222222223E-4 0.0034615384615384616 0.0
2.2222222222222223E-4 0.0038461538461538464 0.0
2.2222222222222223E-4 0.004230769230769231 0.0
2.2222222222222223E-4 0.004615384615384615 0.0
2.2222222222222223E-4 0.005 0.0
2.2222222222222223E-4 0.005111111111111111 0.0
2.2222222222222223E-4 0.005222222222222223 0.0
2.2222222222222223E-4 0.005333333333333333 0.0
2.2222222222222223E-4 0.0054444444444444445 0.0
2.2222222222222223E-4 0.005555555555555556 0.0
2.2222222222222223E-4 0.005666666666666667 0.0
2.2222222222222223E-4 0.0057777777777777775 0.0
2.2222222222222223E-4 0.005888888888888889 0.0
2.2222222222222223E-4 0.006 0.0
2.2222222222222223E-4 0.01711111111111111 0.0
2.2222222222222223E-4 0.028222222222222225 0.0
2.2222222222222223E-4 0.03933333333333333 0.0
2.2222222222222223E-4 0.050444444444444445 0.0
2.2222222222222223E-4 0.06155555555555556 0.0
2.2222222222222223E-4 0.07266666666666667 0.0
2.2222222222222223E-4 0.08377777777777778 0.0
2.2222222222222223E-4 0.0948888888888889 0.0
2.2222222222222223E-4 0.10600000000000001 0.0
2.2222222222222223E-4 0.10611111111111113 0.0
2.2222222222222223E-4 0.10622222222222223 0.0
2.2222222222222223E-4 0.10633333333333335 0.0
2.2222222222222223E-4 0.10644444444444445 0.0
2.2222222222222223E-4 0.10655555555555557 0.0
2.2222222222222223E-4 0.10666666666666667 0.0
2.2222222222222223E-4 0.10677777777777779 0.0
2.2222222222222223E-4 0.1068888888888889 0.0
2.2222222222222223E-4 0.10700000000000001 0.0
3.333333333333334E-4 0.0 0.0
3.333333333333334E-4 3.846153846153846E-4 0.0
3.333333333333334E-4 7.692307692307692E-4 0.0
3.333333333333334E-4 0.0011538461538461537 0.0
3.333333333333334E-4 0.0015384615384615385 0.0
3.333333333333334E-4 0.0019230769230769232 0.0
3.333333333333334E-4 0.0023076923076923075 0.0
3.333333333333334E-4 0.002692307692307692 0.0
3.333333333333334E-4 0.003076923076923077 0.0
3.333333333333334E-4 0.0034615384615384616 0.0
3.333333333333334E-4 0.0038461538461538464 0.0
3.333333333333334E-4 0.004230769230769231 0.0
3.333333333333334E-4 0.004615384615384615 0.0
3.333333333333334E-4 0.005 0.0
3.333333333333334E-4 0.005111111111111111 0.0
3.333333333333334E-4 0.005222222222222223 0.0
3.333333333333334E-4 0.005333333333333333 0.0
3.333333333333334E-4 0.0054444444444444445 0.0
3.333333333333334E-4 0.005555555555555556 0.0
3.333333333333334E-4 0.005666666666666667 0.0
3.333333333333334E-4 0.0057777777777777775 0.0
3.333333333333334E-4 0.005888888888888889 0.0
3.333333333333334E-4 0.006 0.0
3.333333333333334E-4 0.01711111111111111 0.0
3.333333333333334E-4 0.028222222222222225 0.0
3.333333333333334E-4 0.03933333333333333 0.0
3.333333333333334E-4 0.050444444444444445 0.0
3.333333333333334E-4 0.06155555555555556 0.0
3.333333333333334E-4 0.07266666666666667 0.0
3.333333333333334E-4 0.08377777777777778 0.0
3.333333333333334E-4 0.0948888888888889 0.0
3.333333333333334E-4 0.10600000000000001 0.0
3.333333333333334E-4 0.10611111111111113 0.0
3.333333333333334E-4 0.10622222222222223 0.0
3.333333333333334E-4 0.10633333333333335 0.0
3.333333333333334E-4 0.10644444444444445 0.0
3.333333333333334E-4 0.10655555555555557 0.0
3.333333333333334E-4 0.10666666666666667 0.0
3.333333333333334E-4 0.10677777777777779 0.0
3.333333333333334E-4 0.1068888888888889 0.0
3.333333333333334E-4 0.10700000000000001 0.0
4.4444444444444447E-4 0.0 0.0
4.4444444444444447E-4 3.846153846153846E-4 0.0
4.4444444444444447E-4 7.692307692307692E-4 0.0
4.4444444444444447E-4 0.0011538461538461537 0.0
4.4444444444444447E-4 0.0015384615384615385 0.0
4.4444444444444447E-4 0.0019230769230769232 0.0
4.4444444444444447E-4 0.0023076923076923075 0.0
4.4444444444444447E-4 0.002692307692307692 0.0
4.4444444444444447E-4 0.003076923076923077 0.0
4.4444444444444447E-4 0.0034615384615384616 0.0
4.4444444444444447E-4 0.0038461538461538464 0.0
4.4444444444444447E-4 0.004230769230769231 0.0
4.4444444444444447E-4 0.004615384615384615 0.0
4.4444444444444447E-4 0.005 0.0
4.4444444444444447E-4 0.005111111111111111 0.0
4.4444444444444447E-4 0.005222222222222223 0.0
4.4444444444444447E-4 0.005333333333333333 0.0
4.4444444444444447E-4 0.0054444444444444445 0.0
4.4444444444444447E-4 0.005555555555555556 0.0
4.4444444444444447E-4 0.005666666666666667 0.0
4.4444444444444447E-4 0.0057777777777777775 0.0
4.4444444444444447E-4 0.005888888888888889 0.0
4.4444444444444447E-4 0.006 0.0
4.4444444444444447E-4 0.01711111111111111 0.0
4.4444444444444447E-4 0.028222222222222225 0.0
4.4444444444444447E-4 0.03933333333333333 0.0
4.4444444444444447E-4 0.050444444444444445 0.0
4.4444444444444447E-4 0.06155555555555556 0.0
4.4444444444444447E-4 0.07266666666666667 0.0
4.4444444444444447E-4 0.08377777777777778 0.0
4.4444444444444447E-4 0.0948888888888889 0.0
4.4444444444444447E-4 0.10600000000000001 0.0
4.4444444444444447E-4 0.10611111111111113 0.0
4.4444444444444447E-4 0.10622222222222223 0.0
4.4444444444444447E-4 0.10633333333333335 0.0
4.4444444444444447E-4 0.10644444444444445 0.0
4.4444444444444447E-4 0.10655555555555557 0.0
4.4444444444444447E-4 0.10666666666666667 0.0
4.4444444444444447E-4 0.10677777777777779 0.0
4.4444444444444447E-4 0.1068888888888889 0.0
4.4444444444444447E-4 0.10700000000000001 0.0
5.555555555555556E-4 0.0 0.0
5.555555555555556E-4 3.846153846153846E-4 0.0
5.555555555555556E-4 7.692307692307692E-4 0.0
5.555555555555556E-4 0.0011538461538461537 0.0
5.555555555555556E-4 0.0015384615384615385 0.0
5.555555555555556E-4 0.0019230769230769232 0.0
5.555555555555556E-4 0.0023076923076923075 0.0
5.555555555555556E-4 0.002692307692307692 0.0
5.555555555555556E-4 0.003076923076923077 0.0
5.555555555555556E-4 0.0034615384615384616 0.0
5.555555555555556E-4 0.0038461538461538464 0.0
5.555555555555556E-4 0.004230769230769231 0.0
5.555555555555556E-4 0.004615384615384615 0.0
5.555555555555556E-4 0.005 0.0
5.555555555555556E-4 0.005111111111111111 0.0
5.555555555555556E-4 0.005222222222222223 0.0
5.555555555555556E-4 0.005333333333333333 0.0
5.555555555555556E-4 0.0054444444444444445 0.0
5.555555555555556E-4 0.005555555555555556 0.0
5.555555555555556E-4 0.005666666666666667 0.0
5.555555555555556E-4 0.0057777777777777775 0.0
5.555555555555556E-4 0.005888888888888889 0.0
5.555555555555556E-4 0.006 0.0
5.555555555555556E-4 0.01711111111111111 0.0
5.555555555555556E-4 0.028222222222222225 0.0
5.555555555555556E-4 0.03933333333333333 0.0
5.555555555555556E-4 0.050444444444444445 0.0
5.555555555555556E-4 0.06155555555555556 0.0
[...]
POINT_DATA 1353
SCALARS Temperatura float 1
LOOKUP_TABLE default
134.834678430108
134.70869948982173
134.58093111524195
134.4513305904533
134.31984321972553
134.18639278077882
134.05087336087536
133.91313437120183
133.77295409056194
133.62997896274035
133.483642983812
133.33280392283802
133.17586931825485
133.00410248115895
132.81883960626539
132.64538525350378
132.47506976185306
132.30631556494245
132.13808013332
131.96961515978472
131.80029197912938
131.62954283955148
131.45683501189546
112.06604994436339
111.8697037105938
111.90324607872964
111.89493327562533
111.89725516283687
111.89554331576952
111.90074823030854
111.87298251437043
109.71971298424923
109.70060388470988
109.68172369211989
109.66302610043762
109.64446757144276
109.62600918965032
109.60761800815331
109.58926790314389
109.5709400372277
109.55262306426418
134.84160252042338
134.71561832100159
134.58784386255977
134.45823788959166
134.32674580928798
134.19329176237608
134.05777030989185
133.92003225105375
133.77985654276281
133.636899792707
133.49057786791298
133.33988636801647
133.18273385325108
133.0135570908669
132.83935507338188
132.66702430519013
132.4974215543037
132.3290927278531
132.16117934040338
131.99298612430005
131.82390872377934
131.6533897389373
131.4809002642167
112.08304382941972
111.88900850790591
111.92195042250869
111.91379526446379
111.91607190829528
111.9143876119081
111.91952443792943
111.89201367570689
109.73795748289261
109.71886830186418
109.70000778601718
109.68132844877555
109.66278579903496
109.64434024577929
109.62595842796458
109.6076140095003
109.58928806842634
109.57096923662931
134.84870508219618
134.72271881751595
134.59494150917305
134.46533455399276
134.3338439935758
134.20039492399582
134.06488359504348
133.92716385769552
133.78702122380832
133.6441233524623
133.49791368156406
133.34744604639582
133.1906740829436
133.02446499646845
132.855216196344
132.68646406391468
132.51865632489432
132.35157781750394
132.18465470746267
132.01732586972048
131.84904646465912
131.6792850020425
131.50752101953844
112.09636639201736
111.909350040945
111.94047464803307
111.93279659532728
111.9349362857059
111.93333549976607
111.93826567363142
111.91153174866413
109.75599476220643
109.73697449907834
109.71818195482459
109.69956599418325
109.68107923700128
109.66268010708066
109.64433408530016
109.62601429184478
109.60770162797155
109.58938470805359
134.85598711780403
134.7300008425102
134.60222391030032
134.4726203803289
134.34113749111614
134.20770187765268
134.0722125028341
133.93452832533248
133.79444510274638
133.65164931573858
133.505629952592
133.35550413931523
133.19956313913983
133.03605817695362
132.87035348769507
132.70466581144103
132.5392331851704
132.37398455605575
132.2086135644878
132.04269108090895
131.87574037631973
131.70725823050563
131.53672863359876
112.1060055714443
111.93073308868884
111.95881709194045
111.95193785289392
111.95384807618564
111.95238722551954
111.95697143353445
111.93153799998751
109.77382170309372
109.75492358355804
109.73625109153404
109.71774656380225
109.69935765986226
109.6810396222408
109.66275628165715
109.64448015596707
109.62619209496418
109.6078808326109
134.8634490813869
134.73746429645507
134.60969079606934
134.4800950246002
134.34862583733272
134.21521194824973
134.07975596963377
133.9421238148247
133.80212473736486
133.65947198853752
133.51370950463345
133.3640570940339
133.20920471281846
133.0481689883155
132.88544524853654
132.7225578802762
132.55961356215315
132.39655892113004
132.23318182226768
132.06914720005477
131.90403210578182
131.7373505260645
131.56857519206147
112.11194170799656
111.95316549531175
111.97697499920565
111.97121999545269
111.97280690652696
111.9715431893082
111.97564086947271
111.9520345213914
109.79143296526654
109.77271798435096
109.75422442306564
109.735884401536
109.7176383780026
109.69943756226586
109.68124421163223
109.66303071940655
109.64477839491764
109.62647644619499
134.871091088546
134.74510900214224
134.61734179152322
134.48775800189404
134.35630838685847
134.22292420720717
134.08751254266508
133.9499477969314
133.8100556936081
133.66758237970646
133.52213597845295
133.37307171907534
133.21944826711464
133.06072512978585
132.9007307865291
132.7405152122404
132.58011923409376
132.41948718422753
132.25845175110254
132.09673381520545
131.93394658522408
131.7696025398165
131.60313406101508
112.11414737765716
111.97665822132758
111.99494450678216
111.99064436059825
111.99181224580617
111.99080395184393
111.99427276716946
111.97302430772658
109.80882070267482
109.7903626102149
109.77211755136744
109.7540023117737
109.73594790439293
109.71790162766075
109.69982540016358
109.68169286902526
109.66348684989772
109.64519765163904
134.87891301549075
134.7529346646418
134.62517641520293
134.49560869086605
134.36418432243852
134.2308374932178
134.09548040904522
133.95799718404598
133.81823243331306
133.6759696921704
133.53088996762355
133.38250173832589
133.2301807901012
133.07367187502857
132.91628682043057
132.75868864610817
132.60089303234255
132.44285295151658
132.28443972203854
132.12542592177067
131.96545895034203
131.80403516815417
131.64050128455366
112.11258699261388
112.00122546020457
112.01272060861122
112.01021267654411
112.01086339937085
112.01017024536527
112.01286551015754
111.9945113867267
109.82597408970999
109.80786738565021
109.78995657604582
109.7721354730162
109.75432449997237
109.73646965263255
109.71853604232099
109.70050110461555
109.68235077535661
109.66407734165107
134.8869145500545
134.76094086014456
134.63319407471582
134.50364633901782
134.37225266658248
134.2389504342126
134.1036574485515
133.9662684095563
133.82664852411125
133.68462179890517
133.53994867317226
133.3922969762144
133.24131306938116
133.08695366392712
132.932114102448
132.7771086789788
132.62195484041595
132.46663105716763
132.3110603447168
132.1550883132125
131.998441464282
131.84061137707087
131.68079867562116
112.10721594043392
112.02688488146875
112.03029708556828
112.02992708363568
112.02995949834701
112.02964299178305
112.031417019967
112.0165010352836
109.84287852834171
109.8252534180763
109.80778644508761
109.79033820868163
109.77282104158171
109.75519049396296
109.73742088381583
109.71949693803366
109.70140966776947
109.68315432734441
134.89509522088096
134.76912703590114
134.6413940640818
134.51187006822764
134.3805122946388
134.2472614739509
134.11204128988481
133.9747575249023
133.83529689577662
133.6935255463881
133.54928687401167
133.40240734138965
133.2527700170217
133.10051075287586
132.94817086077316
132.79573507590067
132.64323961754636
132.49070323780361
132.33811829524484
132.18543685394866
132.03253855949555
131.87915018807357
131.72418035603215
112.09797879043549
112.05365812691291
112.04766636624532
112.04979017557831
112.04909948078846
112.04922333396036
112.0499246527472
112.03900015540243
109.85951426424528
109.84256555684715
109.82569537442052
109.80869040405895
109.79150665161742
109.77412370498546
109.75653219053093
109.73872761816428
109.72070785482617
109.70247197312648
134.90345441632587
134.77749251435972
134.64977556339494
134.52027888055034
134.38896194899422
134.25576890151424
134.12062936935163
133.98346031474054
133.8441700878833
133.7026671320287
133.55887810972905
133.4127841817698
133.2644847511563
133.11428015361648
132.96439153237753
132.81448650316577
132.66462806079727
132.5148830877064
132.36532421283968
132.21603288125579
132.06710440021706
131.91865665089017
115.85086760742126
115.85086760742126
115.85086760742126
115.85086760742126
115.85086760742126
115.85086760742126
115.85086760742126
115.85086760742126
115.85086760742126
115.85086760742126
109.86001808204962
109.84382327649129
109.82729848078964
109.81046459194353
109.79333708588445
109.77592745963085
109.75824405829161
109.74029256966533
109.72207632147605
136.10659365376642
135.9825775766104
135.86021781250736
135.7395354012476
135.62056527941607
135.50335644788112
135.3879721599881
135.27448996452375
135.16300126779504
135.05360975441695
134.94642735963524
134.84156538982705
134.73911816689224
134.63914126147813
134.54126742079083
134.4436367287429
134.34624556486776
134.24908934318225
134.15216200144664
134.05545516428063
133.95895677397843
133.86264873482205
115.85086760742126
115.85086760742126
115.85086760742126
115.85086760742126
115.85086760742126
115.85086760742126
115.85086760742126
115.85086760742126
115.85086760742126
115.85086760742126
112.11189323633702
112.0890102228996
112.06668730279091
112.04491695779498
112.0236934135784
112.00301224755378
111.9828701629752
111.96326485323813
111.94419492004394
136.89096321336788
136.76664885516757
136.64306130046708
136.5201925637401
136.39802910999825
136.2765516596146
136.1557349253712
136.03554732413085
135.91595075117675
135.79690059373058
135.67834633746733
135.56023342255347
135.44250708210723
135.32511766335253
135.20879295991597
135.0925294102399
134.97632433912065
134.86017528642375
134.74408014334904
134.6280373765178
134.51204639538255
134.39610818509502
115.85086760742126
115.85086760742126
115.85086760742126
115.85086760742126
115.85086760742126
115.85086760742126
115.85086760742126
115.85086760742126
115.85086760742126
115.85086760742126
112.1407910320544
112.12232725060576
112.10381072627582
112.08524434037666
112.06663036630407
112.04797057676828
112.02926630599269
112.01051848732506
111.9917276760409
137.30707953891002
137.18279928197055
137.05914597312758
136.93612195979003
136.81373113516466
136.69197904107466
136.57087301058982
136.45042234051667
136.33063847178923
136.21153513198942
136.09312834593166
135.97543613701362
135.8584777172191
135.74227228771295
135.62737016523883
135.51257331930907
135.39788318344233
135.28330114839463
135.16882852681073
135.05446649424348
134.94021599159936
134.82607755616797
115.85086760742126
115.85086760742126
115.85086760742126
115.85086760742126
115.85086760742126
115.85086760742126
115.85086760742126
115.85086760742126
115.85086760742126
115.85086760742126
112.14060094544485
112.12101814093842
112.10154047998765
112.08216694686453
112.06289672492866
112.04372916709804
112.02466377855839
112.00570020621282
111.98683823223935
137.54128507316258
137.41700261755963
137.2932452148126
137.17001225149852
137.04730260575914
136.92511460529752
136.80344596828198
136.68229372917645
136.56165415458378
136.44152266050313
136.32189375545298
136.20276105667685
136.08411743436025
135.96595525350773
135.8489547863827
135.73203266277818
135.61518821838987
135.49842079448894
135.381729746836
135.2651144609504
135.14857437775805
135.03210903845155
115.85086760742126
115.85086760742126
115.85086760742126
115.85086760742126
115.85086760742126
115.85086760742126
115.85086760742126
115.85086760742126
115.85086760742126
115.85086760742126
112.14060284703106
112.121312389928
112.10208511525751
112.08292133589384
112.06382130169634
112.04478520769457
112.02581319893638
112.0069053734778
111.98806178422423
137.66665225694825
137.54236821688914
137.41855466437772
137.29521180598596
137.17233993128755
137.04993942810222
136.92801080417425
136.8065547149998
136.68557199675817
136.5650637016552
136.44503112947916
136.3254758429554
136.206399652163
136.08780457584547
135.97037818673704
135.8530318469065
135.73576575510353
135.6185801099018
135.50147510752205
135.38445093793962
135.26750777819007
135.15064578048532
115.85086760742126
115.85086760742126
115.85086760742126
115.85086760742126
115.85086760742126
115.85086760742126
115.85086760742126
115.85086760742126
115.85086760742126
115.85086760742126
112.14062959099371
112.12126251028342
112.10196979938583
112.0827513400853
112.06360703366461
112.04453679861192
112.02554056924477
112.00661829485107
111.98776993915523
137.7280093990521
137.60372571590662
137.47988788606528
137.35649592660275
137.23354980122033
137.11104941480255
136.9889946055994
136.86738513500976
136.7462206751271
136.62550079465197
136.50522494476172
136.38539244831577
136.26600249649576
136.1470541506367
136.02925465326766
135.91153136545458
135.79388419739982
135.67631305849258
135.55881785784177
135.44139850530001
135.32405491328976
135.20678700011595
115.85086760742126
115.85086760742126
115.85086760742126
115.85086760742126
115.85086760742126
115.85086760742126
115.85086760742126
115.85086760742126
115.85086760742126
115.85086760742126
112.14061615223949
112.12126952967147
112.10199423707026
112.08279029447823
112.06365771550615
112.04459650802124
112.02560667456666
112.00668821262676
111.9878411147939
137.7463329085142
137.62204890936886
137.49820259962198
137.37479405663993
137.2518233512779
137.12929055102063
137.00719572452755
136.88553894764135
136.76432031084283
136.64353992792618
136.52319794518536
136.40329454950998
136.2838299734101
136.16480449812576
136.0469276316941
135.929127010517
135.81140267209565
135.6937546543232
135.5761829952593
135.45868773266022
135.3412689031063
135.22392654038575
115.85086760742126
115.85086760742126
115.85086760742126
115.85086760742126
115.85086760742126
115.85086760742126
115.85086760742126
115.85086760742126
115.85086760742126
115.85086760742126
112.14062227016844
112.12126896753793
112.10198800650275
112.08277935360442
112.06364297884068
112.04457885530718
112.02558695897652
112.00666726855711
111.98781976540378
137.7280093990517
137.6037257159062
137.47988788606477
137.35649592660215
137.2335498012195
137.1110494148014
136.98899460559798
136.8673851350082
136.7462206751254
136.62550079464995
136.5052249447593
136.3853924483129
136.26600249649243
136.14705415063295
136.02925465326342
135.91153136544992
135.79388419739482
135.6763130584872
135.5588178578361
135.44139850529416
135.3240549132838
135.2067870001099
115.85086760742126
115.85086760742126
115.85086760742126
115.85086760742126
115.85086760742126
115.85086760742126
115.85086760742126
115.85086760742126
115.85086760742126
115.85086760742126
112.14061615222869
112.12126952966067
112.10199423705946
112.08279029446743
112.06365771549528
112.04459650801032
112.02560667455568
112.00668821261577
111.98784111478292
137.6666522569544
137.54236821689528
137.41855466438392
137.29521180599224
137.17233993129395
137.04993942810876
136.92801080418084
136.80655471500637
136.68557199676465
136.56506370166173
136.44503112948584
136.32547584296225
136.20639965217
136.08780457585272
135.97037818674457
135.85303184691423
135.73576575511146
135.61858010991006
135.50147510753047
135.38445093794815
135.26750777819854
135.15064578049373
115.85086760742126
115.85086760742126
115.85086760742126
115.85086760742126
115.85086760742126
115.85086760742126
115.85086760742126
115.85086760742126
115.85086760742126
115.85086760742126
112.14062959095965
112.1212625102492
112.10196979935142
112.08275134005069
112.06360703362982
112.04453679857698
112.02554056920974
112.006618294816
111.98776993912014
137.5412850731725
137.41700261756958
137.2932452148227
137.1700122515087
137.04730260576926
136.92511460530744
136.8034459682918
136.6822937291862
136.56165415459338
136.44152266051245
136.3218937554619
136.20276105668532
136.0841174343682
135.9659552535152
135.84895478638973
135.73203266278486
135.61518821839633
135.4984207944952
135.3817297468421
135.2651144609564
135.14857437776402
135.0321090384575
115.85086760742126
115.85086760742126
115.85086760742126
115.85086760742126
115.85086760742126
115.85086760742126
115.85086760742126
115.85086760742126
115.85086760742126
115.85086760742126
112.14060284702866
112.12131238992562
112.10208511525515
112.08292133589154
112.06382130169412
112.04478520769247
112.02581319893433
112.00690537347572
111.98806178422215
137.3070795389331
137.1827992819936
137.05914597315055
136.9361219598129
136.81373113518748
136.69197904109743
136.57087301061253
136.45042234053935
136.3306384718119
136.21153513201216
136.09312834595448
135.97543613703652
135.85847771724204
135.7422722877359
135.62737016526174
135.512573319332
135.39788318346513
135.28330114841717
135.16882852683312
135.0544664942657
134.94021599162133
134.82607755618974
115.85086760742126
115.85086760742126
115.85086760742126
115.85086760742126
115.85086760742126
115.85086760742126
115.85086760742126
115.85086760742126
115.85086760742126
115.85086760742126
112.14060094543966
112.12101814093319
112.10154047998239
112.08216694685926
112.06289672492335
112.04372916709269
112.02466377855303
112.00570020620751
111.98683823223405
136.89096321339684
136.7666488551966
136.64306130049627
136.52019256376943
136.39802911002775
136.27655165964427
136.15573492540105
136.03554732416086
135.91595075120685
135.79690059376082
135.67834633749766
135.56023342258396
135.44250708213792
135.32511766338354
135.20879295994732
135.09252941027154
134.9763243391526
134.860175286456
134.7440801433815
134.62803737655045
134.51204639541533
134.39610818512776
115.85086760742126
115.85086760742126
115.85086760742126
115.85086760742126
115.85086760742126
115.85086760742126
115.85086760742126
115.85086760742126
115.85086760742126
115.85086760742126
112.14079103203224
112.12232725058345
112.10381072625337
112.08524434035411
112.0666303662815
112.0479705767457
112.02926630597014
112.01051848730258
111.99172767601843
136.1065936537739
135.9825775766179
135.86021781251483
135.73953540125507
135.62056527942352
135.5033564478885
135.38797215999537
135.27448996453091
135.16300126780217
135.05360975442406
134.9464273596424
134.84156538983424
134.7391181668994
134.63914126148526
134.54126742079788
134.44363672874988
134.34624556487466
134.24908934318896
134.1521620014533
134.05545516428717
133.95895677398477
133.86264873482827
115.85086760742126
115.85086760742126
115.85086760742126
115.85086760742126
115.85086760742126
115.85086760742126
115.85086760742126
115.85086760742126
115.85086760742126
115.85086760742126
112.1118932363389
112.08901022290146
112.06668730279277
112.04491695779684
112.02369341358018
112.00301224755546
111.98287016297678
111.96326485323961
111.94419492004538
134.90345441632653
134.77749251436038
134.64977556339554
134.52027888055082
134.3889619489947
134.25576890151476
134.12062936935234
133.9834603147414
133.8441700878843
133.70266713202986
133.5588781097303
133.41278418177114
133.26448475115774
133.11428015361798
132.9643915323791
132.81448650316744
132.66462806079906
132.51488308770845
132.36532421284178
132.21603288125797
132.06710440021934
131.91865665089253
115.85086760742126
115.85086760742126
115.85086760742126
115.85086760742126
115.85086760742126
115.85086760742126
115.85086760742126
115.85086760742126
115.85086760742126
115.85086760742126
109.86001808203288
109.8438232764747
109.82729848077318
109.81046459192713
109.79333708586812
109.7759274596146
109.75824405827548
109.74029256964924
109.72207632145997
134.89509522088173
134.7691270359019
134.6413940640823
134.51187006822815
134.38051229463935
134.2472614739514
134.1120412898856
133.97475752490317
133.83529689577776
133.6935255463894
133.54928687401295
133.40240734139124
133.25277001702332
133.10051075287754
132.94817086077487
132.79573507590243
132.64323961754815
132.49070323780558
132.33811829524691
132.18543685395073
132.03253855949777
131.87915018807584
131.72418035603445
112.09797879044872
112.05365812696078
112.04766636626302
112.04979017559533
112.049099480854
112.04922333397593
112.04992465274466
112.03900015540525
109.85951426422845
109.84256555683038
109.8256953744038
109.80869040404235
109.79150665160094
109.77412370496899
109.75653219051455
109.7387276181479
109.72070785480985
109.70247197311025
134.8869145500554
134.7609408601453
134.6331940747164
134.50364633901836
134.37225266658305
134.23895043421317
134.10365744855233
133.9662684095574
133.82664852411256
133.68462179890653
133.53994867317354
133.39229697621602
133.241313069383
133.08695366392882
132.93211410244976
132.77710867898065
132.6219548404178
132.46663105716956
132.31106034471878
132.15508831321455
131.99844146428407
131.84061137707315
131.68079867562344
112.10721594044733
112.02688488151675
112.03029708558601
112.02992708365267
112.02995949841277
112.02964299179855
112.03141701996446
112.01650103528632
109.84287852832476
109.8252534180594
109.80778644507079
109.79033820866488