# vtk DataFile Version 2.0
Niestacjonarne zagadnienie cieplne - ogrzewanie wody w garnku stalowym
ASCII
DATASET UNSTRUCTURED_GRID
POINTS 1353 float
0.0 0.0 0.0
0.0 3.846153846153846E-4 0.0
0.0 7.692307692307692E-4 0.0
0.0 0.0011538461538461537 0.0
0.0 0.0015384615384615385 0.0
0.0 0.0019230769230769232 0.0
0.0 0.0023076923076923075 0.0
0.0 0.002692307692307692 0.0
0.0 0.003076923076923077 0.0
0.0 0.0034615384615384616 0.0
0.0 0.0038461538461538464 0.0
0.0 0.004230769230769231 0.0
0.0 0.004615384615384615 0.0
0.0 0.005 0.0
0.0 0.005111111111111111 0.0
0.0 0.005222222222222223 0.0
0.0 0.005333333333333333 0.0
0.0 0.0054444444444444445 0.0
0.0 0.005555555555555556 0.0
0.0 0.005666666666666667 0.0
0.0 0.0057777777777777775 0.0
0.0 0.005888888888888889 0.0
0.0 0.006 0.0
0.0 0.01711111111111111 0.0
0.0 0.028222222222222225 0.0
0.0 0.03933333333333333 0.0
0.0 0.050444444444444445 0.0
0.0 0.06155555555555556 0.0
0.0 0.07266666666666667 0.0
0.0 0.08377777777777778 0.0
0.0 0.0948888888888889 0.0
0.0 0.10600000000000001 0.0
0.0 0.10611111111111113 0.0
0.0 0.10622222222222223 0.0
0.0 0.10633333333333335 0.0
0.0 0.10644444444444445 0.0
0.0 0.10655555555555557 0.0
0.0 0.10666666666666667 0.0
0.0 0.10677777777777779 0.0
0.0 0.1068888888888889 0.0
0.0 0.10700000000000001 0.0
1.1111111111111112E-4 0.0 0.0
1.1111111111111112E-4 3.846153846153846E-4 0.0
1.1111111111111112E-4 7.692307692307692E-4 0.0
1.1111111111111112E-4 0.0011538461538461537 0.0
1.1111111111111112E-4 0.0015384615384615385 0.0
1.1111111111111112E-4 0.0019230769230769232 0.0
1.1111111111111112E-4 0.0023076923076923075 0.0
1.1111111111111112E-4 0.002692307692307692 0.0
1.1111111111111112E-4 0.003076923076923077 0.0
1.1111111111111112E-4 0.0034615384615384616 0.0
1.1111111111111112E-4 0.0038461538461538464 0.0
1.1111111111111112E-4 0.004230769230769231 0.0
1.1111111111111112E-4 0.004615384615384615 0.0
1.1111111111111112E-4 0.005 0.0
1.1111111111111112E-4 0.005111111111111111 0.0
1.1111111111111112E-4 0.005222222222222223 0.0
1.1111111111111112E-4 0.005333333333333333 0.0
1.1111111111111112E-4 0.0054444444444444445 0.0
1.1111111111111112E-4 0.005555555555555556 0.0
1.1111111111111112E-4 0.005666666666666667 0.0
1.1111111111111112E-4 0.0057777777777777775 0.0
1.1111111111111112E-4 0.005888888888888889 0.0
1.1111111111111112E-4 0.006 0.0
1.1111111111111112E-4 0.01711111111111111 0.0
1.1111111111111112E-4 0.028222222222222225 0.0
1.1111111111111112E-4 0.03933333333333333 0.0
1.1111111111111112E-4 0.050444444444444445 0.0
1.1111111111111112E-4 0.06155555555555556 0.0
1.1111111111111112E-4 0.07266666666666667 0.0
1.1111111111111112E-4 0.08377777777777778 0.0
1.1111111111111112E-4 0.0948888888888889 0.0
1.1111111111111112E-4 0.10600000000000001 0.0
1.1111111111111112E-4 0.10611111111111113 0.0
1.1111111111111112E-4 0.10622222222222223 0.0
1.1111111111111112E-4 0.10633333333333335 0.0
1.1111111111111112E-4 0.10644444444444445 0.0
1.1111111111111112E-4 0.10655555555555557 0.0
1.1111111111111112E-4 0.10666666666666667 0.0
1.1111111111111112E-4 0.10677777777777779 0.0
1.1111111111111112E-4 0.1068888888888889 0.0
1.1111111111111112E-4 0.10700000000000001 0.0
2.2222222222222223E-4 0.0 0.0
2.2222222222222223E-4 3.846153846153846E-4 0.0
2.2222222222222223E-4 7.692307692307692E-4 0.0
2.2222222222222223E-4 0.0011538461538461537 0.0
2.2222222222222223E-4 0.0015384615384615385 0.0
2.2222222222222223E-4 0.0019230769230769232 0.0
2.2222222222222223E-4 0.0023076923076923075 0.0
2.2222222222222223E-4 0.002692307692307692 0.0
2.2222222222222223E-4 0.003076923076923077 0.0
2.2222222222222223E-4 0.0034615384615384616 0.0
2.2222222222222223E-4 0.0038461538461538464 0.0
2.2222222222222223E-4 0.004230769230769231 0.0
2.2222222222222223E-4 0.004615384615384615 0.0
2.2222222222222223E-4 0.005 0.0
2.2222222222222223E-4 0.005111111111111111 0.0
2.2222222222222223E-4 0.005222222222222223 0.0
2.2222222222222223E-4 0.005333333333333333 0.0
2.2222222222222223E-4 0.0054444444444444445 0.0
2.2222222222222223E-4 0.005555555555555556 0.0
2.2222222222222223E-4 0.005666666666666667 0.0
2.2222222222222223E-4 0.0057777777777777775 0.0
2.2222222222222223E-4 0.005888888888888889 0.0
2.2222222222222223E-4 0.006 0.0
2.2222222222222223E-4 0.01711111111111111 0.0
2.2222222222222223E-4 0.028222222222222225 0.0
2.2222222222222223E-4 0.03933333333333333 0.0
2.2222222222222223E-4 0.050444444444444445 0.0
2.2222222222222223E-4 0.06155555555555556 0.0
2.2222222222222223E-4 0.07266666666666667 0.0
2.2222222222222223E-4 0.08377777777777778 0.0
2.2222222222222223E-4 0.0948888888888889 0.0
2.2222222222222223E-4 0.10600000000000001 0.0
2.2222222222222223E-4 0.10611111111111113 0.0
2.2222222222222223E-4 0.10622222222222223 0.0
2.2222222222222223E-4 0.10633333333333335 0.0
2.2222222222222223E-4 0.10644444444444445 0.0
2.2222222222222223E-4 0.10655555555555557 0.0
2.2222222222222223E-4 0.10666666666666667 0.0
2.2222222222222223E-4 0.10677777777777779 0.0
2.2222222222222223E-4 0.1068888888888889 0.0
2.2222222222222223E-4 0.10700000000000001 0.0
3.333333333333334E-4 0.0 0.0
3.333333333333334E-4 3.846153846153846E-4 0.0
3.333333333333334E-4 7.692307692307692E-4 0.0
3.333333333333334E-4 0.0011538461538461537 0.0
3.333333333333334E-4 0.0015384615384615385 0.0
3.333333333333334E-4 0.0019230769230769232 0.0
3.333333333333334E-4 0.0023076923076923075 0.0
3.333333333333334E-4 0.002692307692307692 0.0
3.333333333333334E-4 0.003076923076923077 0.0
3.333333333333334E-4 0.0034615384615384616 0.0
3.333333333333334E-4 0.0038461538461538464 0.0
3.333333333333334E-4 0.004230769230769231 0.0
3.333333333333334E-4 0.004615384615384615 0.0
3.333333333333334E-4 0.005 0.0
3.333333333333334E-4 0.005111111111111111 0.0
3.333333333333334E-4 0.005222222222222223 0.0
3.333333333333334E-4 0.005333333333333333 0.0
3.333333333333334E-4 0.0054444444444444445 0.0
3.333333333333334E-4 0.005555555555555556 0.0
3.333333333333334E-4 0.005666666666666667 0.0
3.333333333333334E-4 0.0057777777777777775 0.0
3.333333333333334E-4 0.005888888888888889 0.0
3.333333333333334E-4 0.006 0.0
3.333333333333334E-4 0.01711111111111111 0.0
3.333333333333334E-4 0.028222222222222225 0.0
3.333333333333334E-4 0.03933333333333333 0.0
3.333333333333334E-4 0.050444444444444445 0.0
3.333333333333334E-4 0.06155555555555556 0.0
3.333333333333334E-4 0.07266666666666667 0.0
3.333333333333334E-4 0.08377777777777778 0.0
3.333333333333334E-4 0.0948888888888889 0.0
3.333333333333334E-4 0.10600000000000001 0.0
3.333333333333334E-4 0.10611111111111113 0.0
3.333333333333334E-4 0.10622222222222223 0.0
3.333333333333334E-4 0.10633333333333335 0.0
3.333333333333334E-4 0.10644444444444445 0.0
3.333333333333334E-4 0.10655555555555557 0.0
3.333333333333334E-4 0.10666666666666667 0.0
3.333333333333334E-4 0.10677777777777779 0.0
3.333333333333334E-4 0.1068888888888889 0.0
3.333333333333334E-4 0.10700000000000001 0.0
4.4444444444444447E-4 0.0 0.0
4.4444444444444447E-4 3.846153846153846E-4 0.0
4.4444444444444447E-4 7.692307692307692E-4 0.0
4.4444444444444447E-4 0.0011538461538461537 0.0
4.4444444444444447E-4 0.0015384615384615385 0.0
4.4444444444444447E-4 0.0019230769230769232 0.0
4.4444444444444447E-4 0.0023076923076923075 0.0
4.4444444444444447E-4 0.002692307692307692 0.0
4.4444444444444447E-4 0.003076923076923077 0.0
4.4444444444444447E-4 0.0034615384615384616 0.0
4.4444444444444447E-4 0.0038461538461538464 0.0
4.4444444444444447E-4 0.004230769230769231 0.0
4.4444444444444447E-4 0.004615384615384615 0.0
4.4444444444444447E-4 0.005 0.0
4.4444444444444447E-4 0.005111111111111111 0.0
4.4444444444444447E-4 0.005222222222222223 0.0
4.4444444444444447E-4 0.005333333333333333 0.0
4.4444444444444447E-4 0.0054444444444444445 0.0
4.4444444444444447E-4 0.005555555555555556 0.0
4.4444444444444447E-4 0.005666666666666667 0.0
4.4444444444444447E-4 0.0057777777777777775 0.0
4.4444444444444447E-4 0.005888888888888889 0.0
4.4444444444444447E-4 0.006 0.0
4.4444444444444447E-4 0.01711111111111111 0.0
4.4444444444444447E-4 0.028222222222222225 0.0
4.4444444444444447E-4 0.03933333333333333 0.0
4.4444444444444447E-4 0.050444444444444445 0.0
4.4444444444444447E-4 0.06155555555555556 0.0
4.4444444444444447E-4 0.07266666666666667 0.0
4.4444444444444447E-4 0.08377777777777778 0.0
4.4444444444444447E-4 0.0948888888888889 0.0
4.4444444444444447E-4 0.10600000000000001 0.0
4.4444444444444447E-4 0.10611111111111113 0.0
4.4444444444444447E-4 0.10622222222222223 0.0
4.4444444444444447E-4 0.10633333333333335 0.0
4.4444444444444447E-4 0.10644444444444445 0.0
4.4444444444444447E-4 0.10655555555555557 0.0
4.4444444444444447E-4 0.10666666666666667 0.0
4.4444444444444447E-4 0.10677777777777779 0.0
4.4444444444444447E-4 0.1068888888888889 0.0
4.4444444444444447E-4 0.10700000000000001 0.0
5.555555555555556E-4 0.0 0.0
5.555555555555556E-4 3.846153846153846E-4 0.0
5.555555555555556E-4 7.692307692307692E-4 0.0
5.555555555555556E-4 0.0011538461538461537 0.0
5.555555555555556E-4 0.0015384615384615385 0.0
5.555555555555556E-4 0.0019230769230769232 0.0
5.555555555555556E-4 0.0023076923076923075 0.0
5.555555555555556E-4 0.002692307692307692 0.0
5.555555555555556E-4 0.003076923076923077 0.0
5.555555555555556E-4 0.0034615384615384616 0.0
5.555555555555556E-4 0.0038461538461538464 0.0
5.555555555555556E-4 0.004230769230769231 0.0
5.555555555555556E-4 0.004615384615384615 0.0
5.555555555555556E-4 0.005 0.0
5.555555555555556E-4 0.005111111111111111 0.0
5.555555555555556E-4 0.005222222222222223 0.0
5.555555555555556E-4 0.005333333333333333 0.0
5.555555555555556E-4 0.0054444444444444445 0.0
5.555555555555556E-4 0.005555555555555556 0.0
5.555555555555556E-4 0.005666666666666667 0.0
5.555555555555556E-4 0.0057777777777777775 0.0
5.555555555555556E-4 0.005888888888888889 0.0
5.555555555555556E-4 0.006 0.0
5.555555555555556E-4 0.01711111111111111 0.0
5.555555555555556E-4 0.028222222222222225 0.0
5.555555555555556E-4 0.03933333333333333 0.0
5.555555555555556E-4 0.050444444444444445 0.0
5.555555555555556E-4 0.06155555555555556 0.0
[...]
POINT_DATA 1353
SCALARS Temperatura float 1
LOOKUP_TABLE default
90.86910160908508
90.7342924352429
90.59815270833943
90.46064474818077
90.32172268849813
90.18132392358227
90.03936288902574
89.89572008938435
89.75022278240934
89.6026019225619
89.45243125554667
89.2988823231594
89.14075609929657
88.9723141958764
88.79520876424733
88.62509970228461
88.45660753842049
88.2886748308575
88.12056271620389
87.9517035239753
87.78159485325683
87.60976557296681
87.43576308104349
67.60936725981266
67.40369742883426
67.43903473954721
67.43033790424873
67.43262458297214
67.43144109747257
67.43433382205549
67.4196125590737
66.26073291350104
66.2506689446432
66.24073970654429
66.23092413317967
66.22120240225784
66.21155678691875
66.20197227382789
66.19243695568396
66.18294224401951
66.17348296323375
90.87339605702614
90.73858102981873
90.60243451509866
90.46492027534694
90.32599251140834
90.18558889840035
90.04362422744238
89.8999799711432
89.75448402995727
89.60687400676272
89.45671346563479
89.30325978106409
89.14501286426061
88.97817632153414
88.80785003875363
88.63845721208715
88.47043394796577
88.30279878432741
88.13492541654897
87.96627824451474
87.7963687634657
87.62473056327295
87.45091124531838
67.61723102330613
67.41393649650425
67.44865721560106
67.4401216488651
67.44236401784015
67.44120066184743
67.44405501789292
67.4294726918856
66.27016408593265
66.26010888076722
66.25018831497613
66.24038078062222
66.23066601788668
66.22102598964764
66.21144549233479
66.20191252115147
66.1924184488293
66.18295808972003
90.87784369876806
90.74302587529013
90.60687539651578
90.46935862549094
90.33043028448124
90.19002878281891
90.04807014735358
89.90443807374436
89.75896514541436
89.61139703796947
89.46131675677483
89.30802235902809
89.15005136662113
88.98510756295109
88.8179133325708
88.6508214484843
88.4840211348065
88.31728913251503
88.15017375265249
87.98222054241938
87.81297458574133
87.64198042535827
87.4687841903922
67.6213461627876
67.42526729817212
67.45812162455668
67.45007417469233
67.45218242007427
67.45108005611316
67.45381797879054
67.43965880132352
66.27953657320037
66.26951239337376
66.2596224653255
66.24984350616121
66.24015392936496
66.23053478586735
66.22097034000849
66.21144833724587
66.20196006925406
66.19250034249866
90.88244556776388
90.74762686700781
90.61147524416086
90.4739596397652
90.33503579004355
90.19464327837798
90.05270012383404
89.9090937268433
89.76366403508128
89.61617037258013
89.46622779345232
89.31318137116219
89.15579102406818
88.99263446737588
88.82778962312895
88.66276825608946
88.49763630105097
88.33226224776824
88.16635972449087
87.99955417942871
87.83142792753365
87.66153430150442
87.489410095553
67.62170135953477
67.43769446305812
67.46742634232463
67.4601960579077
67.46207960529122
67.46107944704129
67.46362245116724
67.4501715336829
66.28884891017547
66.27887995692538
66.26904436999072
66.2593158697928
66.24967059148221
66.24008812402694
66.23055197328668
66.22104960812797
66.21157229700646
66.20211490171619
90.887202170723
90.75238395993779
90.61623384917428
90.47872304940896
90.339808666473
90.19943186929275
90.05751335864615
89.9139455734395
89.768578197744
89.62118980838665
89.47143472371505
89.31873200083118
89.1621069957113
89.00064588125223
88.8378789537296
88.6748453880938
88.5115381678479
88.34784293177302
88.18353513684222
88.01829817596418
87.85174189920347
87.68341762802972
87.51283598716418
67.61827813283882
67.45122559630572
67.47656867157171
67.47048823973957
67.47205525372752
67.47119909834055
67.47346800055308
67.461011943266
66.29809858487204
66.28821262431492
66.2784582025775
66.26880435002894
66.25922389254472
66.24969456398252
66.24019914642341
66.23072505211
66.22126376176209
66.21181035573365
90.89211369703712
90.75729705325456
90.62115092184482
90.48364847385974
90.34474841053395
90.20439384441045
90.0625087595151
89.91899174894287
89.77370438246815
89.62644887349605
89.47692571071309
89.32465041988605
89.16890056520849
89.00908502965993
88.8483072255267
88.68725409812026
88.52588881965306
88.36410564309111
88.20171576063967
88.03844078508929
87.87390835613759
87.70765221135451
87.53912862832725
67.61105058510341
67.4658713538213
67.48554481913887
67.48095203357991
67.48210890731654
67.48143937412831
67.48335400139777
67.47218152835688
66.30728190779529
66.29751255563411
66.28787103228852
66.27831932819369
66.26882592107845
66.25936674079601
66.24992441251257
66.24048692792323
66.23104646202317
66.22159860209878
90.89718011752514
90.76236594981935
90.62622608939239
90.48873542380986
90.34985438348944
90.20952831192659
90.06768496200182
89.92422996986748
89.77903853672322
89.63193976905904
89.48268664023716
89.33090401874146
89.17609430989309
89.0179023817291
88.8590948924641
88.700049551478
88.5407281641531
88.38104499721666
88.22084955895062
88.0599072577136
87.89786854733393
87.73423876830363
87.56837631317946
67.59998489775334
67.48164558652077
67.49434985382855
67.49158913782956
67.4922399646534
67.49180074466543
67.49327962025711
67.48368229086118
66.31639379462125
66.30678417032173
66.29729471054173
66.2878768406835
66.27849414179227
66.2691219186072
66.2597442792665
66.25035096235256
66.24093557940343
66.23149462789941
90.9024012349567
90.76759034443009
90.63145889056341
90.49398330475631
90.35512581915002
90.21483421525724
90.07304036677644
89.9296575924103
89.78457595470613
89.63765369977409
89.48870099044291
89.33745716596192
89.18362401776363
89.02704488523679
88.87021019582458
88.71320417674956
88.5560072537449
88.39856919791772
88.24079401545919
88.08251726242568
87.92346223668349
87.763119976007
87.60069236739129
67.58503836262213
67.49856561184303
67.50297762899353
67.50240165873838
67.50244767241615
67.50228379580444
67.50324378801002
67.49551683548786
66.32542740326674
66.31603693524603
66.30674966120532
66.29750174174855
66.28825271269048
66.27898239752457
66.26967915272687
66.26033607326777
66.25094910474505
66.24151610880247
90.90777671267473
90.7729698230741
90.63684877187339
90.49939142050225
90.3605618330099
90.22031035207708
90.07857317975704
89.93527168328738
89.7903114568608
89.64358110498114
89.49495051567216
89.34427381878254
89.19143314519386
89.03645459687752
88.88159051229793
88.72663900629142
88.57161228781969
88.41650911224752
88.26130667198572
88.10594655838287
87.95030176167386
87.79409628671738
87.63622206887695
67.56615748847643
67.51665273618602
67.51142063666899
67.51339215232557
67.51273111024433
67.51288924502607
67.51324515264051
67.50768853935818
66.33437351065147
66.32529030398649
66.31627662048896
66.30723060434241
66.2981332244139
66.28897535857898
66.27975286166236
66.27046378275318
66.26110721731074
66.251682781321
90.9133060928743
90.77850386631253
90.64239508606147
90.50495897673619
90.36616143219992
90.22595539538321
90.08428145423838
89.94106910263585
89.79623956610357
89.64971193894498
89.50141606773856
89.35131854855379
89.19946961731351
89.04607014845608
88.89315539766196
88.74024415948806
88.587386551986
88.4346373465178
88.28205809232014
88.12972032811427
87.97771065404325
87.82613936526155
69.94782416370333
69.94782416370333
69.94782416370333
69.94782416370333
69.94782416370333
69.94782416370333
69.94782416370333
69.94782416370333
69.94782416370333
69.94782416370333
66.33464660911027
66.3259396819377
66.31711212082051
66.30817371200983
66.29913173340077
66.28999160429815
66.28075726415886
66.27143139958936
66.2620155809052
91.80234042233852
91.66913474547329
91.53746224492393
91.40734042431538
91.27879832100199
91.15187665175927
91.02662799942523
90.90311692048347
90.7814197308254
90.66162349471902
90.54382327741929
90.42811591077333
90.31458809519114
90.2032988859592
90.09408546282596
89.98511388129148
89.87638177448568
89.76788559728078
89.65962004673814
89.55157718923834
89.44374508608739
89.33610546011941
69.94782416370333
69.94782416370333
69.94782416370333
69.94782416370333
69.94782416370333
69.94782416370333
69.94782416370333
69.94782416370333
69.94782416370333
69.94782416370333
67.54734568918735
67.5349670141606
67.52295273519947
67.51129916495641
67.50000344695182
67.48906337870386
67.47847730814733
67.46824407126003
67.45836295439743
92.3895077660676
92.25605625927275
92.12339625076532
91.99152118933438
91.86041994479541
91.73007664445812
91.60047044705058
91.47157528442582
91.34335963424873
91.21578644998208
91.08881350171431
90.96239460502301
90.83648234164038
90.71103229839649
90.58678401927989
90.46262354022012
90.33854848577262
90.21455675867587
90.09064669458293
89.96681729590526
89.84306860083
89.71940231052635
69.94782416370333
69.94782416370333
69.94782416370333
69.94782416370333
69.94782416370333
69.94782416370333
69.94782416370333
69.94782416370333
69.94782416370333
69.94782416370333
67.56258174207925
67.55259914319106
67.54264968637307
67.53273481429892
67.5228556708192
67.51301314943676
67.50320792190298
67.49344045556441
67.48371102390027
92.69908380187866
92.5656608153809
92.43296162519206
92.30098822962611
92.16974391485027
92.03923334053475
91.90946266019435
91.78043966929619
91.65217396562774
91.52467708949969
91.39796257677811
91.27204579636589
91.14694340672997
91.02267241588515
90.89981448727238
90.77708373398492
90.65448141565368
90.5320087301792
90.40966677326182
90.28745647660833
90.16537850972007
90.04343311218383
69.94782416370333
69.94782416370333
69.94782416370333
69.94782416370333
69.94782416370333
69.94782416370333
69.94782416370333
69.94782416370333
69.94782416370333
69.94782416370333
67.56246841687546
67.55187856465872
67.54140726111966
67.53105397179414
67.52081826184568
67.51069978266774
67.5006982638994
67.49081350853288
67.48104538991781
92.87339959431708
92.73997475555052
92.60719735824875
92.47506694305102
92.34358263286215
92.21274309791258
92.08254650619094
91.9529904605593
91.82407192602457
91.69578715509546
91.56813162846662
91.44110004501476
91.31468640575459
91.18888419746767
91.06437920510588
90.9399792987052
90.8156839217403
90.69149252924069
90.56740459816322
90.44341964350875
90.3195372442481
90.19575708795497
69.94782416370333
69.94782416370333
69.94782416370333
69.94782416370333
69.94782416370333
69.94782416370333
69.94782416370333
69.94782416370333
69.94782416370333
69.94782416370333
67.56246941437821
67.55203819374431
67.54170282581089
67.53146346027695
67.5213202148592
67.51127317902346
67.5013224162361
67.4914679653602
67.48170984151838
92.96653520491962
92.83310911512756
92.7002898051507
92.56807749444827
92.4364724736322
92.30547511713858
92.17508590135803
92.04530542808706
91.91613445264177
91.78757391482294
91.65962496843346
91.53228900049405
91.40556762826817
91.2794626723908
91.15466327837795
91.02997089761284
90.90538570999371
90.78090789344222
90.65653762129892
90.53227505816598
90.40812035309789
90.28407362773643
69.94782416370333
69.94782416370333
69.94782416370333
69.94782416370333
69.94782416370333
69.94782416370333
69.94782416370333
69.94782416370333
69.94782416370333
69.94782416370333
67.56248384024433
67.55201104333842
67.54164015004503
67.53137108599033
67.52120378673287
67.51113819671215
67.50117426860541
67.49131196292316
67.48155124775687
93.01208395364596
92.87865817007794
92.74582095566113
92.61357237126805
92.48191243460428
92.3508411156802
92.22035833027587
92.09046393134993
91.9611576984647
91.83243932560462
91.70430840845881
91.57676443354144
91.44980677242674
91.32343468154284
91.19835249184165
91.07337427821999
90.94849997303335
90.82372950845884
90.69906281716383
90.57449983342013
90.45004049497818
90.32568474639112
69.94782416370333
69.94782416370333
69.94782416370333
69.94782416370333
69.94782416370333
69.94782416370333
69.94782416370333
69.94782416370333
69.94782416370333
69.94782416370333
67.56247652965872
67.55201483319924
67.54165339621885
67.53139221668522
67.52123128921113
67.5111706053723
67.50121015390498
67.4913499208321
67.48158988954295
93.02567769319353
92.89225165420223
92.75940808748814
92.62714710389616
92.4954688098471
92.36437330994853
92.23386071078863
92.10393112597718
91.97458468245043
91.84582152791641
91.71764183897992
91.59004582883874
91.46303375298157
91.33660591270909
91.21146812960396
91.08643442282418
90.96150483281379
90.83667940007906
90.71195816488891
90.58734116675267
90.4628284435165
90.33842002973351
69.94782416370333
69.94782416370333
69.94782416370333
69.94782416370333
69.94782416370333
69.94782416370333
69.94782416370333
69.94782416370333
69.94782416370333
69.94782416370333
67.56247984178006
67.55201452083308
67.5416500065126
67.53138626864722
67.5212232788139
67.51116101017148
67.50119943735587
67.49133853641263
67.4815782847539
93.01208395364573
92.87865817007771
92.74582095566086
92.6135723712677
92.48191243460379
92.35084111567946
92.22035833027496
92.09046393134894
91.96115769846361
91.83243932560333
91.70430840845725
91.5767644335396
91.4498067724246
91.32343468154038
91.19835249183888
91.07337427821692
90.94849997303005
90.82372950845529
90.69906281716007
90.57449983341624
90.45004049497422
90.3256847463871
69.94782416370333
69.94782416370333
69.94782416370333
69.94782416370333
69.94782416370333
69.94782416370333
69.94782416370333
69.94782416370333
69.94782416370333
69.94782416370333
67.56247652965216
67.55201483319267
67.5416533962123
67.53139221667867
67.52123128920456
67.51117060536568
67.50121015389833
67.49134992082544
67.48158988953628
92.96653520492373
92.83310911513166
92.70028980515484
92.56807749445248
92.43647247363646
92.30547511714296
92.17508590136244
92.04530542809141
91.91613445264606
91.78757391482726
91.65962496843788
91.53228900049857
91.4055676282728
91.27946267239562
91.15466327838297
91.029970897618
90.90538570999901
90.7809078934477
90.65653762130451
90.53227505817162
90.40812035310351
90.28407362774203
69.94782416370333
69.94782416370333
69.94782416370333
69.94782416370333
69.94782416370333
69.94782416370333
69.94782416370333
69.94782416370333
69.94782416370333
69.94782416370333
67.56248384022388
67.55201104331788
67.54164015002438
67.53137108596957
67.52120378671198
67.51113819669119
67.50117426858436
67.49131196290209
67.4815512477358
92.8733995943237
92.73997475555717
92.6071973582555
92.47506694305783
92.34358263286893
92.21274309791922
92.08254650619754
91.95299046056587
91.82407192603107
91.69578715510177
91.56813162847264
91.44110004502046
91.31468640575996
91.18888419747269
91.06437920511058
90.93997929870967
90.81568392174462
90.69149252924488
90.56740459816733
90.44341964351275
90.31953724425207
90.19575708795891
69.94782416370333
69.94782416370333
69.94782416370333
69.94782416370333
69.94782416370333
69.94782416370333
69.94782416370333
69.94782416370333
69.94782416370333
69.94782416370333
67.56246941437671
67.55203819374282
67.54170282580942
67.53146346027553
67.52132021485784
67.51127317902215
67.50132241623483
67.49146796535891
67.4817098415171
92.69908380189408
92.5656608153963
92.43296162520744
92.30098822964145
92.16974391486556
92.03923334055003
91.90946266020957
91.78043966931135
91.6521739656429
91.5246770895149
91.39796257679338
91.27204579638122
91.14694340674534
91.02267241590056
90.89981448728777
90.7770837340003
90.65448141566898
90.53200873019432
90.40966677327684
90.28745647662325
90.1653785097348
90.04343311219839
69.94782416370333
69.94782416370333
69.94782416370333
69.94782416370333
69.94782416370333
69.94782416370333
69.94782416370333
69.94782416370333
69.94782416370333
69.94782416370333
67.56246841687222
67.55187856465545
67.54140726111638
67.53105397179084
67.52081826184236
67.5106997826644
67.50069826389604
67.49081350852954
67.48104538991448
92.389507766087
92.25605625929218
92.12339625078482
91.99152118935396
91.8604199448151
91.73007664447792
91.60047044707049
91.47157528444583
91.3433596342688
91.2157864500022
91.08881350173452
90.96239460504331
90.83648234166084
90.71103229841714
90.58678401930075
90.46262354024118
90.33854848579388
90.21455675869737
90.09064669460454
89.96681729592699
89.84306860085182
89.71940231054819
69.94782416370333
69.94782416370333
69.94782416370333
69.94782416370333
69.94782416370333
69.94782416370333
69.94782416370333
69.94782416370333
69.94782416370333
69.94782416370333
67.56258174206587
67.5525991431776
67.54264968635952
67.53273481428532
67.52285567080557
67.51301314942313
67.50320792188938
67.49344045555085
67.48371102388673
91.8023404223433
91.66913474547808
91.53746224492872
91.40734042432018
91.27879832100676
91.151876651764
91.02662799942989
90.90311692048807
90.78141973083
90.66162349472361
90.5438232774239
90.42811591077796
90.31458809519577
90.20329888596382
90.09408546283049
89.98511388129597
89.8763817744901
89.76788559728504
89.65962004674239
89.55157718924254
89.44374508609145
89.33610546012339
69.94782416370333
69.94782416370333
69.94782416370333
69.94782416370333
69.94782416370333
69.94782416370333
69.94782416370333
69.94782416370333
69.94782416370333
69.94782416370333
67.54734568918852
67.53496701416175
67.52295273520062
67.51129916495758
67.50000344695296
67.48906337870493
67.47847730814833
67.46824407126095
67.45836295439832
90.91330609287473
90.77850386631296
90.64239508606187
90.50495897673652
90.36616143220022
90.2259553953835
90.08428145423878
89.94106910263633
89.79623956610412
89.64971193894561
89.50141606773931
89.35131854855464
89.19946961731442
89.04607014845699
88.89315539766295
88.74024415948915
88.5873865519872
88.43463734651918
88.28205809232156
88.12972032811577
87.97771065404481
87.82613936526319
69.94782416370333
69.94782416370333
69.94782416370333
69.94782416370333
69.94782416370333
69.94782416370333
69.94782416370333
69.94782416370333
69.94782416370333
69.94782416370333
66.33464660910013
66.32593968192765
66.31711212081056
66.3081737119999
66.29913173339088
66.28999160428833
66.28075726414912
66.27143139957963
66.26201558089546
90.90777671267523
90.77296982307456
90.6368487718737
90.49939142050256
90.36056183301022
90.22031035207746
90.07857317975757
89.93527168328794
89.79031145686153
89.64358110498188
89.49495051567287
89.34427381878353
89.19143314519485
89.0364545968785
88.88159051229908
88.7266390062926
88.57161228782088
88.41650911224883
88.26130667198707
88.10594655838428
87.95030176167535
87.79409628671888
87.63622206887852
67.56615748848441
67.51665273621472
67.51142063667952
67.51339215233561
67.5127311102842
67.51288924503528
67.51324515263907
67.5076885393598
66.33437351064131
66.32529030397632
66.31627662047886
66.30723060433236
66.29813322440391
66.28897535856903
66.27975286165243
66.27046378274326
66.26110721730085
66.25168278131116
90.90240123495731
90.7675903444305
90.63145889056376
90.4939833047566
90.35512581915026
90.21483421525764
90.07304036677692
89.92965759241093
89.78457595470687
89.63765369977493
89.4887009904435
89.33745716596289
89.18362401776471
89.02704488523791
88.87021019582573
88.71320417675071
88.55600725374606
88.39856919791903
88.24079401546051
88.08251726242709
87.92346223668494
87.76311997600853
87.60069236739294
67.58503836263021
67.49856561187183
67.50297762900409
67.50240165874845
67.50244767245617
67.50228379581367
67.50324378800863
67.49551683548944
66.3254274032565
66.31603693523583
66.30674966119516
66.29750174173842
66.2882527126804
66.27898239751453
66.26967915271689
66.26033607325772
66.250949104735
66.24151610879244
90.89718011752565
90.76236594981977
90.6262260893928
90.48873542380994
90.34985438348973
90.20952831192685
90.06768496200226
89.92422996986814
89.77903853672395
89.63193976905985
89.4826866402379
89.33090401874244
89.1760943098942
89.01790238173032
88.8590948924653
88.7000495514792
88.54072816415434
88.38104499721794
88.22084955895191
88.05990725771497
87.89786854733535
87.73423876830512
87.56837631318099
67.5999848977616
67.48164558654967
67.49434985383911
67.49158913783984
67.49223996469351
67.49180074467468
67.4932796202557
67.48368229086266
66.31639379461096
66.30678417031143
66.29729471053147
66.28787684067326
66.2784941417821
66.26912191859711
66.25974427925637
66.25035096234245
66.2409355793933
66.23149462788923
90.8921136970375
90.75729705325499
90.62115092184524
90.48364847385994
90.34474841053424
90.20439384441065
90.06250875951554
89.91899174894355
89.77370438246899