# vtk DataFile Version 2.0
Niestacjonarne zagadnienie cieplne - ogrzewanie wody w garnku stalowym
ASCII
DATASET UNSTRUCTURED_GRID
POINTS 1353 float
0.0 0.0 0.0
0.0 3.846153846153846E-4 0.0
0.0 7.692307692307692E-4 0.0
0.0 0.0011538461538461537 0.0
0.0 0.0015384615384615385 0.0
0.0 0.0019230769230769232 0.0
0.0 0.0023076923076923075 0.0
0.0 0.002692307692307692 0.0
0.0 0.003076923076923077 0.0
0.0 0.0034615384615384616 0.0
0.0 0.0038461538461538464 0.0
0.0 0.004230769230769231 0.0
0.0 0.004615384615384615 0.0
0.0 0.005 0.0
0.0 0.005111111111111111 0.0
0.0 0.005222222222222223 0.0
0.0 0.005333333333333333 0.0
0.0 0.0054444444444444445 0.0
0.0 0.005555555555555556 0.0
0.0 0.005666666666666667 0.0
0.0 0.0057777777777777775 0.0
0.0 0.005888888888888889 0.0
0.0 0.006 0.0
0.0 0.01711111111111111 0.0
0.0 0.028222222222222225 0.0
0.0 0.03933333333333333 0.0
0.0 0.050444444444444445 0.0
0.0 0.06155555555555556 0.0
0.0 0.07266666666666667 0.0
0.0 0.08377777777777778 0.0
0.0 0.0948888888888889 0.0
0.0 0.10600000000000001 0.0
0.0 0.10611111111111113 0.0
0.0 0.10622222222222223 0.0
0.0 0.10633333333333335 0.0
0.0 0.10644444444444445 0.0
0.0 0.10655555555555557 0.0
0.0 0.10666666666666667 0.0
0.0 0.10677777777777779 0.0
0.0 0.1068888888888889 0.0
0.0 0.10700000000000001 0.0
1.1111111111111112E-4 0.0 0.0
1.1111111111111112E-4 3.846153846153846E-4 0.0
1.1111111111111112E-4 7.692307692307692E-4 0.0
1.1111111111111112E-4 0.0011538461538461537 0.0
1.1111111111111112E-4 0.0015384615384615385 0.0
1.1111111111111112E-4 0.0019230769230769232 0.0
1.1111111111111112E-4 0.0023076923076923075 0.0
1.1111111111111112E-4 0.002692307692307692 0.0
1.1111111111111112E-4 0.003076923076923077 0.0
1.1111111111111112E-4 0.0034615384615384616 0.0
1.1111111111111112E-4 0.0038461538461538464 0.0
1.1111111111111112E-4 0.004230769230769231 0.0
1.1111111111111112E-4 0.004615384615384615 0.0
1.1111111111111112E-4 0.005 0.0
1.1111111111111112E-4 0.005111111111111111 0.0
1.1111111111111112E-4 0.005222222222222223 0.0
1.1111111111111112E-4 0.005333333333333333 0.0
1.1111111111111112E-4 0.0054444444444444445 0.0
1.1111111111111112E-4 0.005555555555555556 0.0
1.1111111111111112E-4 0.005666666666666667 0.0
1.1111111111111112E-4 0.0057777777777777775 0.0
1.1111111111111112E-4 0.005888888888888889 0.0
1.1111111111111112E-4 0.006 0.0
1.1111111111111112E-4 0.01711111111111111 0.0
1.1111111111111112E-4 0.028222222222222225 0.0
1.1111111111111112E-4 0.03933333333333333 0.0
1.1111111111111112E-4 0.050444444444444445 0.0
1.1111111111111112E-4 0.06155555555555556 0.0
1.1111111111111112E-4 0.07266666666666667 0.0
1.1111111111111112E-4 0.08377777777777778 0.0
1.1111111111111112E-4 0.0948888888888889 0.0
1.1111111111111112E-4 0.10600000000000001 0.0
1.1111111111111112E-4 0.10611111111111113 0.0
1.1111111111111112E-4 0.10622222222222223 0.0
1.1111111111111112E-4 0.10633333333333335 0.0
1.1111111111111112E-4 0.10644444444444445 0.0
1.1111111111111112E-4 0.10655555555555557 0.0
1.1111111111111112E-4 0.10666666666666667 0.0
1.1111111111111112E-4 0.10677777777777779 0.0
1.1111111111111112E-4 0.1068888888888889 0.0
1.1111111111111112E-4 0.10700000000000001 0.0
2.2222222222222223E-4 0.0 0.0
2.2222222222222223E-4 3.846153846153846E-4 0.0
2.2222222222222223E-4 7.692307692307692E-4 0.0
2.2222222222222223E-4 0.0011538461538461537 0.0
2.2222222222222223E-4 0.0015384615384615385 0.0
2.2222222222222223E-4 0.0019230769230769232 0.0
2.2222222222222223E-4 0.0023076923076923075 0.0
2.2222222222222223E-4 0.002692307692307692 0.0
2.2222222222222223E-4 0.003076923076923077 0.0
2.2222222222222223E-4 0.0034615384615384616 0.0
2.2222222222222223E-4 0.0038461538461538464 0.0
2.2222222222222223E-4 0.004230769230769231 0.0
2.2222222222222223E-4 0.004615384615384615 0.0
2.2222222222222223E-4 0.005 0.0
2.2222222222222223E-4 0.005111111111111111 0.0
2.2222222222222223E-4 0.005222222222222223 0.0
2.2222222222222223E-4 0.005333333333333333 0.0
2.2222222222222223E-4 0.0054444444444444445 0.0
2.2222222222222223E-4 0.005555555555555556 0.0
2.2222222222222223E-4 0.005666666666666667 0.0
2.2222222222222223E-4 0.0057777777777777775 0.0
2.2222222222222223E-4 0.005888888888888889 0.0
2.2222222222222223E-4 0.006 0.0
2.2222222222222223E-4 0.01711111111111111 0.0
2.2222222222222223E-4 0.028222222222222225 0.0
2.2222222222222223E-4 0.03933333333333333 0.0
2.2222222222222223E-4 0.050444444444444445 0.0
2.2222222222222223E-4 0.06155555555555556 0.0
2.2222222222222223E-4 0.07266666666666667 0.0
2.2222222222222223E-4 0.08377777777777778 0.0
2.2222222222222223E-4 0.0948888888888889 0.0
2.2222222222222223E-4 0.10600000000000001 0.0
2.2222222222222223E-4 0.10611111111111113 0.0
2.2222222222222223E-4 0.10622222222222223 0.0
2.2222222222222223E-4 0.10633333333333335 0.0
2.2222222222222223E-4 0.10644444444444445 0.0
2.2222222222222223E-4 0.10655555555555557 0.0
2.2222222222222223E-4 0.10666666666666667 0.0
2.2222222222222223E-4 0.10677777777777779 0.0
2.2222222222222223E-4 0.1068888888888889 0.0
2.2222222222222223E-4 0.10700000000000001 0.0
3.333333333333334E-4 0.0 0.0
3.333333333333334E-4 3.846153846153846E-4 0.0
3.333333333333334E-4 7.692307692307692E-4 0.0
3.333333333333334E-4 0.0011538461538461537 0.0
3.333333333333334E-4 0.0015384615384615385 0.0
3.333333333333334E-4 0.0019230769230769232 0.0
3.333333333333334E-4 0.0023076923076923075 0.0
3.333333333333334E-4 0.002692307692307692 0.0
3.333333333333334E-4 0.003076923076923077 0.0
3.333333333333334E-4 0.0034615384615384616 0.0
3.333333333333334E-4 0.0038461538461538464 0.0
3.333333333333334E-4 0.004230769230769231 0.0
3.333333333333334E-4 0.004615384615384615 0.0
3.333333333333334E-4 0.005 0.0
3.333333333333334E-4 0.005111111111111111 0.0
3.333333333333334E-4 0.005222222222222223 0.0
3.333333333333334E-4 0.005333333333333333 0.0
3.333333333333334E-4 0.0054444444444444445 0.0
3.333333333333334E-4 0.005555555555555556 0.0
3.333333333333334E-4 0.005666666666666667 0.0
3.333333333333334E-4 0.0057777777777777775 0.0
3.333333333333334E-4 0.005888888888888889 0.0
3.333333333333334E-4 0.006 0.0
3.333333333333334E-4 0.01711111111111111 0.0
3.333333333333334E-4 0.028222222222222225 0.0
3.333333333333334E-4 0.03933333333333333 0.0
3.333333333333334E-4 0.050444444444444445 0.0
3.333333333333334E-4 0.06155555555555556 0.0
3.333333333333334E-4 0.07266666666666667 0.0
3.333333333333334E-4 0.08377777777777778 0.0
3.333333333333334E-4 0.0948888888888889 0.0
3.333333333333334E-4 0.10600000000000001 0.0
3.333333333333334E-4 0.10611111111111113 0.0
3.333333333333334E-4 0.10622222222222223 0.0
3.333333333333334E-4 0.10633333333333335 0.0
3.333333333333334E-4 0.10644444444444445 0.0
3.333333333333334E-4 0.10655555555555557 0.0
3.333333333333334E-4 0.10666666666666667 0.0
3.333333333333334E-4 0.10677777777777779 0.0
3.333333333333334E-4 0.1068888888888889 0.0
3.333333333333334E-4 0.10700000000000001 0.0
4.4444444444444447E-4 0.0 0.0
4.4444444444444447E-4 3.846153846153846E-4 0.0
4.4444444444444447E-4 7.692307692307692E-4 0.0
4.4444444444444447E-4 0.0011538461538461537 0.0
4.4444444444444447E-4 0.0015384615384615385 0.0
4.4444444444444447E-4 0.0019230769230769232 0.0
4.4444444444444447E-4 0.0023076923076923075 0.0
4.4444444444444447E-4 0.002692307692307692 0.0
4.4444444444444447E-4 0.003076923076923077 0.0
4.4444444444444447E-4 0.0034615384615384616 0.0
4.4444444444444447E-4 0.0038461538461538464 0.0
4.4444444444444447E-4 0.004230769230769231 0.0
4.4444444444444447E-4 0.004615384615384615 0.0
4.4444444444444447E-4 0.005 0.0
4.4444444444444447E-4 0.005111111111111111 0.0
4.4444444444444447E-4 0.005222222222222223 0.0
4.4444444444444447E-4 0.005333333333333333 0.0
4.4444444444444447E-4 0.0054444444444444445 0.0
4.4444444444444447E-4 0.005555555555555556 0.0
4.4444444444444447E-4 0.005666666666666667 0.0
4.4444444444444447E-4 0.0057777777777777775 0.0
4.4444444444444447E-4 0.005888888888888889 0.0
4.4444444444444447E-4 0.006 0.0
4.4444444444444447E-4 0.01711111111111111 0.0
4.4444444444444447E-4 0.028222222222222225 0.0
4.4444444444444447E-4 0.03933333333333333 0.0
4.4444444444444447E-4 0.050444444444444445 0.0
4.4444444444444447E-4 0.06155555555555556 0.0
4.4444444444444447E-4 0.07266666666666667 0.0
4.4444444444444447E-4 0.08377777777777778 0.0
4.4444444444444447E-4 0.0948888888888889 0.0
4.4444444444444447E-4 0.10600000000000001 0.0
4.4444444444444447E-4 0.10611111111111113 0.0
4.4444444444444447E-4 0.10622222222222223 0.0
4.4444444444444447E-4 0.10633333333333335 0.0
4.4444444444444447E-4 0.10644444444444445 0.0
4.4444444444444447E-4 0.10655555555555557 0.0
4.4444444444444447E-4 0.10666666666666667 0.0
4.4444444444444447E-4 0.10677777777777779 0.0
4.4444444444444447E-4 0.1068888888888889 0.0
4.4444444444444447E-4 0.10700000000000001 0.0
5.555555555555556E-4 0.0 0.0
5.555555555555556E-4 3.846153846153846E-4 0.0
5.555555555555556E-4 7.692307692307692E-4 0.0
5.555555555555556E-4 0.0011538461538461537 0.0
5.555555555555556E-4 0.0015384615384615385 0.0
5.555555555555556E-4 0.0019230769230769232 0.0
5.555555555555556E-4 0.0023076923076923075 0.0
5.555555555555556E-4 0.002692307692307692 0.0
5.555555555555556E-4 0.003076923076923077 0.0
5.555555555555556E-4 0.0034615384615384616 0.0
5.555555555555556E-4 0.0038461538461538464 0.0
5.555555555555556E-4 0.004230769230769231 0.0
5.555555555555556E-4 0.004615384615384615 0.0
5.555555555555556E-4 0.005 0.0
5.555555555555556E-4 0.005111111111111111 0.0
5.555555555555556E-4 0.005222222222222223 0.0
5.555555555555556E-4 0.005333333333333333 0.0
5.555555555555556E-4 0.0054444444444444445 0.0
5.555555555555556E-4 0.005555555555555556 0.0
5.555555555555556E-4 0.005666666666666667 0.0
5.555555555555556E-4 0.0057777777777777775 0.0
5.555555555555556E-4 0.005888888888888889 0.0
5.555555555555556E-4 0.006 0.0
5.555555555555556E-4 0.01711111111111111 0.0
5.555555555555556E-4 0.028222222222222225 0.0
5.555555555555556E-4 0.03933333333333333 0.0
5.555555555555556E-4 0.050444444444444445 0.0
5.555555555555556E-4 0.06155555555555556 0.0
[...]
POINT_DATA 1353
SCALARS Temperatura float 1
LOOKUP_TABLE default
66.07913703765924
65.93934894188541
65.79848903306919
65.65652247040519
65.51340836611128
65.36909179217366
65.22349865757916
65.0765269988614
64.9280316905226
64.77779133831994
64.6254584857048
64.47038159504635
64.31158347859629
64.14501633842873
63.97251047779631
63.804287657521364
63.636823577420365
63.469354067631215
63.30131148669256
63.132230016028124
62.961678448771266
62.78924013337874
62.61450764740532
42.54249316988754
42.331566240990036
42.36791562876496
42.35900225723567
42.361269083652076
42.36038351451481
42.36197251216098
42.354606356275674
41.75641285745379
41.75144898015738
41.746566732430345
41.74175927981643
41.737020172236434
41.73234363002375
41.72772475167793
41.72315964586648
41.71864550297314
41.71418062665229
66.0819487632972
65.94215447910216
65.80128738554495
65.65931407449581
65.51619370509621
65.37187158382167
65.22627390851231
65.0792994469502
64.93080369638362
64.78056992878172
64.62824498711416
64.47323384747085
64.31436985396431
64.14885284407175
63.98071189344104
63.812975624814136
63.64584295483929
63.47859891405764
63.31074811286151
63.141844979584526
62.97146633199009
62.7991970644822
62.624627916837284
42.54520891978782
42.336693602388685
42.372417299105194
42.3636672392468
42.365890282342946
42.3650206582883
42.36658804499024
42.3592954101087
41.7608746411436
41.75591323790193
41.7510334576385
41.746228284071286
41.74149112017721
41.73681608198485
41.73219820400445
41.72763356213085
41.72311933375144
41.718653819197236
66.08489942994318
65.94510193729685
65.80423025147078
65.66225353571149
65.51913140687229
65.3748097809587
65.22921583610349
65.08225009587245
64.93377168496393
64.78357026855653
64.63130754704518
64.4764192820122
64.31777221907622
64.15354184572844
63.98750608470737
63.821350332111244
63.65511805608228
63.48858143197348
63.321357642397466
63.153052381642134
62.9832614369721
62.81157222227786
62.63756841423579
42.544132459280526
42.342943708515314
42.37677333587891
42.36851760173327
42.370608116852324
42.3697867878335
42.37128861097753
42.36421969746385
41.76536149056869
41.76040974696765
41.75553955377793
41.75074333264576
41.74601404078211
41.74134548741044
41.73673252791432
41.732171154202355
41.7276585165798
41.723192912920034
66.08799008857207
65.94819122997941
65.8073175429137
65.66534072028469
65.52222128973958
65.37790613560378
65.2323240217529
65.08537838548797
64.93693409103369
64.78679153511358
64.63463685398432
64.47994364915051
64.32173608988973
64.15877598278655
63.994415963059964
63.829770295516425
63.66480787523491
63.499363103092044
63.33316087748152
63.165857420256685
62.99706833826868
62.826378851545016
62.65335552784916
42.539252888013976
42.35032110414957
42.380982137140606
42.37355391607906
42.37542242224957
42.37468202514983
42.376074097672664
42.369379514796435
41.769872873189165
41.76493862504541
41.76008572179575
41.7553055795087
41.75059038931339
41.745933467904344
41.741329414957214
41.736774129457
41.73226475441589
41.72779960680192
66.09122127553452
65.95142234284273
65.81054908541589
65.66857540187809
65.52546305012645
65.38116022180006
65.23559781686437
65.08868323065033
64.94028894396014
64.79023036738974
64.63822405814541
64.48380141960415
64.32617692277819
64.16447595379685
64.00168467630402
63.83856867879815
63.675056837859536
63.51100040412019
63.346167838261785
63.18025294096374
63.012884055862344
62.84363355566452
62.6720334313574
42.530552390055206
42.358833259657395
42.38504103808684
42.378777113893044
42.38033290890557
42.37970655701952
42.38094430386781
42.374775331464434
41.774407871755635
41.76950014908385
41.764673285989495
41.75991712466066
41.7552227414442
41.75058282577175
41.74599173260618
41.74144534260909
41.73694087163313
41.73247671113879
66.0945932218291
65.95479521812983
65.81392463733177
65.67195725876716
65.52885626493796
65.38457145099095
65.23903633243204
65.09216314153248
64.94383365991104
64.79388171397524
64.64205987262308
64.48797404473095
64.33102522037062
64.17059373808003
64.00937418140198
63.84784880159233
63.685936985160055
63.523504747960345
63.36035116154885
63.196198251626825
63.03068179481021
62.86334751549672
62.69366516477087
42.51800592847947
42.36849065919231
42.388946284964504
42.384188494920345
42.38533915983425
42.38486063671022
42.38589893596587
42.38040780191357
41.77896514044451
41.774094929341075
41.76930450437843
41.76458134468781
41.75991505248593
41.75529770143361
41.75072359208966
41.74618880432701
41.74169079040107
41.73722811383678
66.09810595161997
65.95830971384147
65.81744388715994
65.67548587609289
65.53240039609443
65.38813908333076
65.24263845687172
65.0958162880515
64.9475650240288
64.79773946656863
64.64613316722173
64.49243662080964
64.33622362698412
64.1770827342268
64.01747320741596
63.857611883781644
63.69743019137692
63.536820572768576
63.3756202386128
63.21359055474927
63.050383697116814
62.88551006962921
62.718334652418044
42.501580682294936
42.37930696052217
42.39269298878651
42.389789740752036
42.39044062620819
42.390144586766866
42.39093760202947
42.38627778578764
41.783542832151696
41.77872428123003
41.77398319454801
41.76930348272261
41.76467306120544
41.760083760609575
41.755530400415246
41.75100965624677
41.74651946757952
41.7420587059105
66.10175933248362
65.96196559165213
65.82110644758947
65.67916074843819
65.5360947965482
65.39186224012187
65.24640288455863
65.09964054672969
64.95147930403364
64.8017967084584
64.65043095945234
64.49716171710722
64.34172202707575
64.18389130408889
64.02593166436375
63.86779761205056
63.70944869852167
63.55081851280095
63.39180034270196
63.23222407528809
63.07181120198838
62.910052455328675
62.74615043442441
42.48123501705486
42.39129928256171
42.39627504377212
42.39558293841318
42.39563661985944
42.395558803555765
42.396059802058346
42.392386381086965
41.78813847798018
41.78339110810146
41.77871595245672
41.774091776842546
41.76950473250841
41.76494832944389
41.760418839716664
41.75591407663235
41.75143276807252
41.746974245818116
66.10555310371295
65.9657625157756
65.82491185112036
65.68298128218412
65.53993871719955
65.3957399185938
65.25032814687447
65.10363355674578
64.95557238642243
64.80604590481765
64.6549389367487
64.50212121214587
64.34747433321571
64.19096251945915
64.03467517182862
63.87830517935085
63.72185121277939
63.56530075233543
63.40862243899867
63.25175195907545
63.0945585501887
62.93676465458605
62.77725280207505
42.456916535083224
42.40448874259634
42.39968497772885
42.40157062267358
42.4009263002605
42.40110376470584
42.40126491243685
42.39873497742903
41.792748792885504
41.78810054414237
41.783516742903785
41.7789583783667
41.774420494777615
41.76990033586396
41.76539670451259
41.76090908152713
41.756437255066345
41.7519811474984
66.10948689424531
65.96970005592513
65.82885954783778
65.68694679783785
65.54393131445514
65.39977100821413
65.25441264500233
65.10779278464595
64.95983991241772
64.81047912821205
64.6596420739188
64.50728713330076
64.35343681945004
64.19823592561471
64.04361489483674
63.88900860891101
63.73445992533282
63.58001678664282
63.425734494789445
63.27167900281098
63.11793200134582
62.964599508179234
44.06542041515539
44.06542041515539
44.06542041515539
44.06542041515539
44.06542041515539
44.06542041515539
44.06542041515539
44.06542041515539
44.06542041515539
44.06542041515539
41.79289180037795
41.78840690899181
41.78391942902724
41.77943288194687
41.77494992318792
41.77047254514006
41.76600220313589
41.76153989156147
41.757086189818665
66.82141335242108
66.68302612522362
66.54610264385961
66.41065841808911
66.27671915898856
66.14432091235228
66.01351024445866
65.88434438608826
65.75689114441005
65.63122821231842
65.50744114293319
65.38561860664544
65.26584300649166
65.14817536256918
65.03256812374998
64.91720198957196
64.80207530000453
64.68718509680555
64.57252650516779
64.45809184055837
64.34386923138796
64.22984029818141
44.06542041515539
44.06542041515539
44.06542041515539
44.06542041515539
44.06542041515539
44.06542041515539
44.06542041515539
44.06542041515539
44.06542041515539
44.06542041515539
42.41965206719532
42.413196257153096
42.40699449938835
42.40104526658639
42.39534734749775
42.38989979144573
42.38470187371744
42.379753074535
42.37505306629572
67.29738833806368
67.15878485546774
67.02100934937538
66.88405607731356
66.74791526504494
66.61257296087842
66.47801083038597
66.34420591504455
66.2111304039909
66.07875151690827
65.94703169504659
65.81592947645382
65.68540158637366
65.55540656598471
65.42669058466093
65.29807742790996
65.16956488930617
65.04115107619366
64.91283457483001
64.78461468973161
64.65649181359713
64.52846805132168
44.06542041515539
44.06542041515539
44.06542041515539
44.06542041515539
44.06542041515539
44.06542041515539
44.06542041515539
44.06542041515539
44.06542041515539
44.06542041515539
42.42718495446576
42.421984465334994
42.416865544451056
42.41182882331217
42.4068748088755
42.40200389890338
42.397216391612716
42.39251249159552
42.38789231344038
67.5468916898028
67.40831358068064
67.27051387577472
67.13349437656194
66.99725802693055
66.86180898914914
66.72715275164093
66.59329626334339
66.4602480827867
66.32801851698949
66.1966196984254
66.06606549926148
65.93637113816521
65.80755238654443
65.68020858260773
65.55300430162873
65.4259407051917
65.29901888245561
65.17223980679671
65.04560427242923
64.91911279582277
64.79276544870443
44.06542041515539
44.06542041515539
44.06542041515539
44.06542041515539
44.06542041515539
44.06542041515539
44.06542041515539
44.06542041515539
44.06542041515539
44.06542041515539
42.4271149111336
42.421595729732786
42.416202655477385
42.41093542526361
42.40579381953492
42.40077765797995
42.39588679679567
42.3911211269851
42.3864805733049
67.68743868275723
67.54885891668071
67.41099560091531
67.27384836296811
67.13741646375337
67.00169876663524
66.86669369323315
66.7323991668999
66.59881254643679
66.4659305560177
66.33374922449785
66.20226386063187
66.07146910305136
65.94135907105077
65.81262265785793
65.68400640935361
65.55550982978346
65.42713243831946
65.29887378025478
65.17073344359821
65.04271108515705
64.91480647504179
44.06542041515539
44.06542041515539
44.06542041515539
44.06542041515539
44.06542041515539
44.06542041515539
44.06542041515539
44.06542041515539
44.06542041515539
44.06542041515539
42.42711539886957
42.42167945346545
42.41635778187064
42.41115044177787
42.406057476395304
42.401078915666695
42.39621477705877
42.391465066058686
42.38682977648528
67.76240053688834
67.62381970779097
67.48592250692604
67.3487091610192
67.21217996126761
67.07633527456102
66.94117555961098
66.80670138793533
66.67291346925522
66.53981267999157
66.40740009163311
66.27567699212919
66.14464489002388
66.01430549424822
65.88534883707969
65.75651439679562
65.62780234266478
65.49921284096405
65.37074605213296
65.24240212646684
65.11418119724307
64.98608336886629
44.06542041515539
44.06542041515539
44.06542041515539
44.06542041515539
44.06542041515539
44.06542041515539
44.06542041515539
44.06542041515539
44.06542041515539
44.06542041515539
42.42712287918432
42.42166511892738
42.41632478719729
42.41110183434042
42.40599621524168
42.40100788897325
42.396136818564415
42.39138297085359
42.38674631639459
67.79903573050024
67.66045517904563
67.52254366709168
67.38530128020629
67.24872806654527
67.11282403283995
66.97758913858559
66.84302328836647
66.70912632234085
66.57589800513415
66.44333801391795
66.31144592748267
66.18022121911635
66.0496632552497
65.92047472509266
65.79140582717143
65.66245650633248
65.53362670760171
65.40491637692985
65.27632546235732
65.14785391591563
65.01950169695782
44.06542041515539
44.06542041515539
44.06542041515539
44.06542041515539
44.06542041515539
44.06542041515539
44.06542041515539
44.06542041515539
44.06542041515539
44.06542041515539
42.42711902396286
42.421667087821056
42.416331723044365
42.41111291515361
42.40601064804958
42.401024904121996
42.396155664322144
42.39140290821043
42.38676661398696
67.80996259144968
67.6713818187278
67.53346515412747
67.39621272737038
67.2596246649309
67.12370109234817
66.9884421375963
66.85384793557974
66.71991863378985
66.58665439905667
66.45405542507535
66.32212193987714
66.19085421190672
66.06025255377544
65.9310207084097
65.80190863192061
65.67291636641137
65.54404395386159
65.41529143578573
65.28665885268153
65.15814624310872
65.02975364205162
44.06542041515539
44.06542041515539
44.06542041515539
44.06542041515539
44.06542041515539
44.06542041515539
44.06542041515539
44.06542041515539
44.06542041515539
44.06542041515539
42.427120754031236
42.421666916286114
42.41632993515608
42.41110978232318
42.40600643025477
42.401019852145325
42.3961500218771
42.391396913994186
42.386760503685615
67.79903573050014
67.66045517904551
67.52254366709154
67.38530128020611
67.24872806654497
67.11282403283948
66.977589138585
66.84302328836581
66.70912632234013
66.57589800513328
66.44333801391689
66.31144592748139
66.18022121911484
66.04966325524798
65.92047472509071
65.79140582716929
65.66245650633016
65.53362670759923
65.40491637692722
65.27632546235458
65.14785391591285
65.01950169695499
44.06542041515539
44.06542041515539
44.06542041515539
44.06542041515539
44.06542041515539
44.06542041515539
44.06542041515539
44.06542041515539
44.06542041515539
44.06542041515539
42.42711902395875
42.42166708781695
42.41633172304026
42.4111129151495
42.40601064804545
42.40102490411784
42.39615566431797
42.39140290820626
42.38676661398279
67.76240053689143
67.62381970779404
67.48592250692913
67.34870916102231
67.21217996127076
67.07633527456424
66.94117555961422
66.80670138793855
66.67291346925839
66.53981267999477
66.40740009163638
66.27567699213256
66.14464489002734
66.0143054942518
65.8853488370834
65.75651439679942
65.62780234266869
65.4992128409681
65.37074605213708
65.24240212647102
65.1141811972472
64.98608336887041
44.06542041515539
44.06542041515539
44.06542041515539
44.06542041515539
44.06542041515539
44.06542041515539
44.06542041515539
44.06542041515539
44.06542041515539
44.06542041515539
42.4271228791715
42.4216651189145
42.41632478718434
42.4111018343274
42.40599621522858
42.4010078889601
42.396136818551234
42.391382970840404
42.3867463163814
67.68743868276205
67.54885891668555
67.4109956009202
67.27384836297301
67.13741646375826
67.00169876664005
66.86669369323792
66.73239916690464
66.59881254644148
66.46593055602226
66.33374922450221
66.202263860636
66.07146910305522
65.94135907105439
65.81262265786135
65.68400640935688
65.55550982978662
65.42713243832252
65.29887378025776
65.17073344360114
65.04271108515997
64.91480647504466
44.06542041515539
44.06542041515539
44.06542041515539
44.06542041515539
44.06542041515539
44.06542041515539
44.06542041515539
44.06542041515539
44.06542041515539
44.06542041515539
42.42711539886862
42.42167945346451
42.41635778186972
42.41115044177698
42.406057476394444
42.40107891566588
42.39621477705798
42.391465066057876
42.38682977648447
67.54689168981388
67.40831358069171
67.27051387578577
67.13349437657297
66.99725802694154
66.86180898916011
66.72715275165186
66.59329626335429
66.4602480827976
66.32801851700042
66.19661969843636
66.06606549927251
65.93637113817627
65.8075523865555
65.6802085826188
65.55300430163979
65.4259407052027
65.29901888246648
65.17223980680753
65.04560427243996
64.91911279583337
64.79276544871492
44.06542041515539
44.06542041515539
44.06542041515539
44.06542041515539
44.06542041515539
44.06542041515539
44.06542041515539
44.06542041515539
44.06542041515539
44.06542041515539
42.42711491113156
42.421595729730726
42.4162026554753
42.41093542526153
42.40579381953282
42.40077765797784
42.39588679679356
42.391121126983
42.386480573302805
67.2973883380777
67.15878485548177
67.02100934938944
66.8840560773277
66.74791526505918
66.61257296089273
66.47801083040036
66.344205915059
66.2111304040054
66.07875151692281
65.94703169506118
65.81592947646848
65.68540158638842
65.55540656599962
65.426690584676
65.29807742792515
65.1695648893215
65.04115107620915
64.91283457484559
64.78461468974727
64.65649181361283
64.52846805133738
44.06542041515539
44.06542041515539
44.06542041515539
44.06542041515539
44.06542041515539
44.06542041515539
44.06542041515539
44.06542041515539
44.06542041515539
44.06542041515539
42.42718495445733
42.42198446532652
42.416865544442544
42.411828823303615
42.40687480886693
42.40200389889481
42.397216391604154
42.392512491586984
42.38789231343185
66.82141335242453
66.6830261252271
66.5461026438631
66.41065841809262
66.27671915899205
66.14432091235575
66.01351024446207
65.88434438609164
65.7568911444134
65.63122821232177
65.50744114293656
65.38561860664879
65.26584300649502
65.14817536257252
65.03256812375326
64.91720198957522
64.80207530000774
64.68718509680868
64.5725265051709
64.45809184056142
64.34386923139093
64.22984029818433
44.06542041515539
44.06542041515539
44.06542041515539
44.06542041515539
44.06542041515539
44.06542041515539
44.06542041515539
44.06542041515539
44.06542041515539
44.06542041515539
42.41965206719602
42.413196257153785
42.406994499389036
42.401045266587076
42.39534734749842
42.38989979144637
42.384701873718036
42.37975307453556
42.37505306629627
66.10948689424569
65.96970005592551
65.82885954783814
65.68694679783815
65.5439313144554
65.39977100821443
65.25441264500272
65.10779278464639
64.95983991241823
64.8104791282126
64.6596420739194
64.50728713330146
64.35343681945079
64.19823592561546
64.04361489483755
63.88900860891188
63.73445992533375
63.580016786643874
63.425734494790525
63.27167900281211
63.11793200134699
62.964599508180434
44.06542041515539
44.06542041515539
44.06542041515539
44.06542041515539
44.06542041515539
44.06542041515539
44.06542041515539
44.06542041515539
44.06542041515539
44.06542041515539
41.79289180037152
41.788406908985436
41.78391942902091
41.779432881940565
41.774949923181644
41.77047254513382
41.766002203129695
41.761539891555294
41.75708618981248
66.1055531037134
65.96576251577605
65.8249118511207
65.68298128218437
65.53993871719982
65.3957399185941
65.25032814687489
65.10363355674622
64.95557238642296
64.80604590481828
64.65493893674929
64.50212121214666
64.3474743332165
64.19096251945994
64.0346751718295
63.87830517935174
63.72185121278029
63.56530075233645
63.408622438999735
63.251751959076536
63.09455855018983
62.93676465458724
62.77725280207625
42.45691653508808
42.4044887426143
42.399684977735525
42.40157062267993
42.400926300285384
42.401103764711635
42.40126491243585
42.39873497743023
41.79274879287903
41.788100544135894
41.783516742897355
41.7789583783603
41.774420494771284
41.76990033585765
41.76539670450629
41.76090908152085
41.75643725506005
41.751981147492124
66.1017593324841
65.96196559165251
65.8211064475898
65.67916074843843
65.53609479654844
65.39186224012221
65.24640288455903
65.09964054673023
64.95147930403417
64.80179670845905
64.65043095945292
64.49716171710801
64.34172202707663
64.1838913040897
64.02593166436468
63.86779761205146
63.70944869852259
63.55081851280194
63.391800342702986
63.232224075289146
63.071811201989476
62.910052455329776
62.74615043442554
42.4812350170598
42.391299282579716
42.396275043778786
42.395582938419565
42.39563661988442
42.395558803561556
42.39605980205737
42.39238638108814
41.78813847797366
41.783391108094946
41.77871595245025
41.774091776836094
41.769504732502014
41.76494832943751
41.760418839710354
41.75591407662597
41.7514327680661
41.74697424581172
66.09810595162041
65.95830971384194
65.81744388716028
65.67548587609313
65.53240039609474
65.38813908333107
65.24263845687209
65.09581628805213
64.94756502402943
64.79773946656931
64.6461331672223
64.49243662081052
64.33622362698502
64.17708273422767
64.01747320741687
63.857611883782575
63.69743019137784
63.536820572769564
63.37562023861377
63.213590554750255
63.05038369711787
62.885510069630286
62.71833465241914
42.501580682299995
42.37930696054025
42.392692988793165
42.389789740758545
42.39044062623323
42.390144586772685
42.390937602028515
42.38627778578878
41.783542832145166
41.77872428122352
41.77398319454149
41.76930348271612
41.76467306119901
41.76008376060316
41.75553040040886
41.75100965624037