# vtk DataFile Version 2.0
Niestacjonarne zagadnienie cieplne - ogrzewanie wody w garnku stalowym
ASCII
DATASET UNSTRUCTURED_GRID
POINTS 1353 float
0.0 0.0 0.0
0.0 3.846153846153846E-4 0.0
0.0 7.692307692307692E-4 0.0
0.0 0.0011538461538461537 0.0
0.0 0.0015384615384615385 0.0
0.0 0.0019230769230769232 0.0
0.0 0.0023076923076923075 0.0
0.0 0.002692307692307692 0.0
0.0 0.003076923076923077 0.0
0.0 0.0034615384615384616 0.0
0.0 0.0038461538461538464 0.0
0.0 0.004230769230769231 0.0
0.0 0.004615384615384615 0.0
0.0 0.005 0.0
0.0 0.005111111111111111 0.0
0.0 0.005222222222222223 0.0
0.0 0.005333333333333333 0.0
0.0 0.0054444444444444445 0.0
0.0 0.005555555555555556 0.0
0.0 0.005666666666666667 0.0
0.0 0.0057777777777777775 0.0
0.0 0.005888888888888889 0.0
0.0 0.006 0.0
0.0 0.01711111111111111 0.0
0.0 0.028222222222222225 0.0
0.0 0.03933333333333333 0.0
0.0 0.050444444444444445 0.0
0.0 0.06155555555555556 0.0
0.0 0.07266666666666667 0.0
0.0 0.08377777777777778 0.0
0.0 0.0948888888888889 0.0
0.0 0.10600000000000001 0.0
0.0 0.10611111111111113 0.0
0.0 0.10622222222222223 0.0
0.0 0.10633333333333335 0.0
0.0 0.10644444444444445 0.0
0.0 0.10655555555555557 0.0
0.0 0.10666666666666667 0.0
0.0 0.10677777777777779 0.0
0.0 0.1068888888888889 0.0
0.0 0.10700000000000001 0.0
1.1111111111111112E-4 0.0 0.0
1.1111111111111112E-4 3.846153846153846E-4 0.0
1.1111111111111112E-4 7.692307692307692E-4 0.0
1.1111111111111112E-4 0.0011538461538461537 0.0
1.1111111111111112E-4 0.0015384615384615385 0.0
1.1111111111111112E-4 0.0019230769230769232 0.0
1.1111111111111112E-4 0.0023076923076923075 0.0
1.1111111111111112E-4 0.002692307692307692 0.0
1.1111111111111112E-4 0.003076923076923077 0.0
1.1111111111111112E-4 0.0034615384615384616 0.0
1.1111111111111112E-4 0.0038461538461538464 0.0
1.1111111111111112E-4 0.004230769230769231 0.0
1.1111111111111112E-4 0.004615384615384615 0.0
1.1111111111111112E-4 0.005 0.0
1.1111111111111112E-4 0.005111111111111111 0.0
1.1111111111111112E-4 0.005222222222222223 0.0
1.1111111111111112E-4 0.005333333333333333 0.0
1.1111111111111112E-4 0.0054444444444444445 0.0
1.1111111111111112E-4 0.005555555555555556 0.0
1.1111111111111112E-4 0.005666666666666667 0.0
1.1111111111111112E-4 0.0057777777777777775 0.0
1.1111111111111112E-4 0.005888888888888889 0.0
1.1111111111111112E-4 0.006 0.0
1.1111111111111112E-4 0.01711111111111111 0.0
1.1111111111111112E-4 0.028222222222222225 0.0
1.1111111111111112E-4 0.03933333333333333 0.0
1.1111111111111112E-4 0.050444444444444445 0.0
1.1111111111111112E-4 0.06155555555555556 0.0
1.1111111111111112E-4 0.07266666666666667 0.0
1.1111111111111112E-4 0.08377777777777778 0.0
1.1111111111111112E-4 0.0948888888888889 0.0
1.1111111111111112E-4 0.10600000000000001 0.0
1.1111111111111112E-4 0.10611111111111113 0.0
1.1111111111111112E-4 0.10622222222222223 0.0
1.1111111111111112E-4 0.10633333333333335 0.0
1.1111111111111112E-4 0.10644444444444445 0.0
1.1111111111111112E-4 0.10655555555555557 0.0
1.1111111111111112E-4 0.10666666666666667 0.0
1.1111111111111112E-4 0.10677777777777779 0.0
1.1111111111111112E-4 0.1068888888888889 0.0
1.1111111111111112E-4 0.10700000000000001 0.0
2.2222222222222223E-4 0.0 0.0
2.2222222222222223E-4 3.846153846153846E-4 0.0
2.2222222222222223E-4 7.692307692307692E-4 0.0
2.2222222222222223E-4 0.0011538461538461537 0.0
2.2222222222222223E-4 0.0015384615384615385 0.0
2.2222222222222223E-4 0.0019230769230769232 0.0
2.2222222222222223E-4 0.0023076923076923075 0.0
2.2222222222222223E-4 0.002692307692307692 0.0
2.2222222222222223E-4 0.003076923076923077 0.0
2.2222222222222223E-4 0.0034615384615384616 0.0
2.2222222222222223E-4 0.0038461538461538464 0.0
2.2222222222222223E-4 0.004230769230769231 0.0
2.2222222222222223E-4 0.004615384615384615 0.0
2.2222222222222223E-4 0.005 0.0
2.2222222222222223E-4 0.005111111111111111 0.0
2.2222222222222223E-4 0.005222222222222223 0.0
2.2222222222222223E-4 0.005333333333333333 0.0
2.2222222222222223E-4 0.0054444444444444445 0.0
2.2222222222222223E-4 0.005555555555555556 0.0
2.2222222222222223E-4 0.005666666666666667 0.0
2.2222222222222223E-4 0.0057777777777777775 0.0
2.2222222222222223E-4 0.005888888888888889 0.0
2.2222222222222223E-4 0.006 0.0
2.2222222222222223E-4 0.01711111111111111 0.0
2.2222222222222223E-4 0.028222222222222225 0.0
2.2222222222222223E-4 0.03933333333333333 0.0
2.2222222222222223E-4 0.050444444444444445 0.0
2.2222222222222223E-4 0.06155555555555556 0.0
2.2222222222222223E-4 0.07266666666666667 0.0
2.2222222222222223E-4 0.08377777777777778 0.0
2.2222222222222223E-4 0.0948888888888889 0.0
2.2222222222222223E-4 0.10600000000000001 0.0
2.2222222222222223E-4 0.10611111111111113 0.0
2.2222222222222223E-4 0.10622222222222223 0.0
2.2222222222222223E-4 0.10633333333333335 0.0
2.2222222222222223E-4 0.10644444444444445 0.0
2.2222222222222223E-4 0.10655555555555557 0.0
2.2222222222222223E-4 0.10666666666666667 0.0
2.2222222222222223E-4 0.10677777777777779 0.0
2.2222222222222223E-4 0.1068888888888889 0.0
2.2222222222222223E-4 0.10700000000000001 0.0
3.333333333333334E-4 0.0 0.0
3.333333333333334E-4 3.846153846153846E-4 0.0
3.333333333333334E-4 7.692307692307692E-4 0.0
3.333333333333334E-4 0.0011538461538461537 0.0
3.333333333333334E-4 0.0015384615384615385 0.0
3.333333333333334E-4 0.0019230769230769232 0.0
3.333333333333334E-4 0.0023076923076923075 0.0
3.333333333333334E-4 0.002692307692307692 0.0
3.333333333333334E-4 0.003076923076923077 0.0
3.333333333333334E-4 0.0034615384615384616 0.0
3.333333333333334E-4 0.0038461538461538464 0.0
3.333333333333334E-4 0.004230769230769231 0.0
3.333333333333334E-4 0.004615384615384615 0.0
3.333333333333334E-4 0.005 0.0
3.333333333333334E-4 0.005111111111111111 0.0
3.333333333333334E-4 0.005222222222222223 0.0
3.333333333333334E-4 0.005333333333333333 0.0
3.333333333333334E-4 0.0054444444444444445 0.0
3.333333333333334E-4 0.005555555555555556 0.0
3.333333333333334E-4 0.005666666666666667 0.0
3.333333333333334E-4 0.0057777777777777775 0.0
3.333333333333334E-4 0.005888888888888889 0.0
3.333333333333334E-4 0.006 0.0
3.333333333333334E-4 0.01711111111111111 0.0
3.333333333333334E-4 0.028222222222222225 0.0
3.333333333333334E-4 0.03933333333333333 0.0
3.333333333333334E-4 0.050444444444444445 0.0
3.333333333333334E-4 0.06155555555555556 0.0
3.333333333333334E-4 0.07266666666666667 0.0
3.333333333333334E-4 0.08377777777777778 0.0
3.333333333333334E-4 0.0948888888888889 0.0
3.333333333333334E-4 0.10600000000000001 0.0
3.333333333333334E-4 0.10611111111111113 0.0
3.333333333333334E-4 0.10622222222222223 0.0
3.333333333333334E-4 0.10633333333333335 0.0
3.333333333333334E-4 0.10644444444444445 0.0
3.333333333333334E-4 0.10655555555555557 0.0
3.333333333333334E-4 0.10666666666666667 0.0
3.333333333333334E-4 0.10677777777777779 0.0
3.333333333333334E-4 0.1068888888888889 0.0
3.333333333333334E-4 0.10700000000000001 0.0
4.4444444444444447E-4 0.0 0.0
4.4444444444444447E-4 3.846153846153846E-4 0.0
4.4444444444444447E-4 7.692307692307692E-4 0.0
4.4444444444444447E-4 0.0011538461538461537 0.0
4.4444444444444447E-4 0.0015384615384615385 0.0
4.4444444444444447E-4 0.0019230769230769232 0.0
4.4444444444444447E-4 0.0023076923076923075 0.0
4.4444444444444447E-4 0.002692307692307692 0.0
4.4444444444444447E-4 0.003076923076923077 0.0
4.4444444444444447E-4 0.0034615384615384616 0.0
4.4444444444444447E-4 0.0038461538461538464 0.0
4.4444444444444447E-4 0.004230769230769231 0.0
4.4444444444444447E-4 0.004615384615384615 0.0
4.4444444444444447E-4 0.005 0.0
4.4444444444444447E-4 0.005111111111111111 0.0
4.4444444444444447E-4 0.005222222222222223 0.0
4.4444444444444447E-4 0.005333333333333333 0.0
4.4444444444444447E-4 0.0054444444444444445 0.0
4.4444444444444447E-4 0.005555555555555556 0.0
4.4444444444444447E-4 0.005666666666666667 0.0
4.4444444444444447E-4 0.0057777777777777775 0.0
4.4444444444444447E-4 0.005888888888888889 0.0
4.4444444444444447E-4 0.006 0.0
4.4444444444444447E-4 0.01711111111111111 0.0
4.4444444444444447E-4 0.028222222222222225 0.0
4.4444444444444447E-4 0.03933333333333333 0.0
4.4444444444444447E-4 0.050444444444444445 0.0
4.4444444444444447E-4 0.06155555555555556 0.0
4.4444444444444447E-4 0.07266666666666667 0.0
4.4444444444444447E-4 0.08377777777777778 0.0
4.4444444444444447E-4 0.0948888888888889 0.0
4.4444444444444447E-4 0.10600000000000001 0.0
4.4444444444444447E-4 0.10611111111111113 0.0
4.4444444444444447E-4 0.10622222222222223 0.0
4.4444444444444447E-4 0.10633333333333335 0.0
4.4444444444444447E-4 0.10644444444444445 0.0
4.4444444444444447E-4 0.10655555555555557 0.0
4.4444444444444447E-4 0.10666666666666667 0.0
4.4444444444444447E-4 0.10677777777777779 0.0
4.4444444444444447E-4 0.1068888888888889 0.0
4.4444444444444447E-4 0.10700000000000001 0.0
5.555555555555556E-4 0.0 0.0
5.555555555555556E-4 3.846153846153846E-4 0.0
5.555555555555556E-4 7.692307692307692E-4 0.0
5.555555555555556E-4 0.0011538461538461537 0.0
5.555555555555556E-4 0.0015384615384615385 0.0
5.555555555555556E-4 0.0019230769230769232 0.0
5.555555555555556E-4 0.0023076923076923075 0.0
5.555555555555556E-4 0.002692307692307692 0.0
5.555555555555556E-4 0.003076923076923077 0.0
5.555555555555556E-4 0.0034615384615384616 0.0
5.555555555555556E-4 0.0038461538461538464 0.0
5.555555555555556E-4 0.004230769230769231 0.0
5.555555555555556E-4 0.004615384615384615 0.0
5.555555555555556E-4 0.005 0.0
5.555555555555556E-4 0.005111111111111111 0.0
5.555555555555556E-4 0.005222222222222223 0.0
5.555555555555556E-4 0.005333333333333333 0.0
5.555555555555556E-4 0.0054444444444444445 0.0
5.555555555555556E-4 0.005555555555555556 0.0
5.555555555555556E-4 0.005666666666666667 0.0
5.555555555555556E-4 0.0057777777777777775 0.0
5.555555555555556E-4 0.005888888888888889 0.0
5.555555555555556E-4 0.006 0.0
5.555555555555556E-4 0.01711111111111111 0.0
5.555555555555556E-4 0.028222222222222225 0.0
5.555555555555556E-4 0.03933333333333333 0.0
5.555555555555556E-4 0.050444444444444445 0.0
5.555555555555556E-4 0.06155555555555556 0.0
[...]
POINT_DATA 1353
SCALARS Temperatura float 1
LOOKUP_TABLE default
95.9566988604494
95.82291150129078
95.68774048837116
95.55114755877418
95.41308582450576
95.27349110417805
95.13227547872056
94.98931585463461
94.84443382193824
94.69735055570825
94.54762363013748
94.39438827794976
94.23639994557877
94.06757328834314
93.8895238958035
93.71902772434498
93.55032456910742
93.3822968006525
93.2141704160378
93.04535684190604
92.87533906632356
92.70363477747716
92.52978210117877
72.75379417251843
72.5492032471511
72.58433285116281
72.57568045520273
72.57797120817264
72.57672658186614
72.57988686784844
72.563656130232
71.28970793309688
71.27859728214543
71.26763225980895
71.25678887934505
71.24604457410858
71.23537916533955
71.224775564471
71.21422021909963
71.20370335477527
71.19321908185623
95.96129760466684
95.8275044609059
95.69232674162971
95.55572762864898
95.41766030522673
95.27806088031161
95.13684180404316
94.99388099957476
94.8490007037233
94.70192914678675
94.55221280167117
94.3990787508724
94.24095847580114
94.07385112814141
93.9030763540944
93.73334355547006
93.56513751670755
93.39742208397519
93.22954408521079
93.06094944393165
92.891136249362
92.71962756224177
92.54596213074275
72.76271445305832
72.5604913805799
72.59500626043798
72.58651471373682
72.58876104892066
72.58753741088242
72.59065588919827
72.57457751375156
71.30015896373239
71.28905836728377
71.27810329066345
71.2672691313168
71.2565328254352
71.24587384172898
71.23527487548584
71.22472226352426
71.21420618729732
71.20372074573591
95.96605246775847
95.83225661231805
95.6970750579149
95.56047359291483
95.42240593507678
95.2828089531527
95.14159638543559
94.9986484740252
94.85379235532932
94.70676467705782
94.55713229414467
94.40416500297906
94.2463327594948
94.08124254015635
93.91381055960552
93.74652655533049
93.57960966466736
93.4128375655885
93.24574443475538
93.07786347549677
92.90872936598879
92.7378778506071
92.56484735266106
72.76789505474738
72.57286488373083
72.60551905090492
72.59751434684573
72.5996262309715
72.59846619074497
72.6014577957784
72.58584349693122
71.31053412116584
71.29946893489758
71.28854881620906
71.27774725919262
71.267039692551
71.25640454885453
71.24582391886366
71.2352838556323
71.2247744484794
71.21428978733566
95.97096447958135
95.83716784715126
95.70198532459031
95.56538528757716
95.42732248899978
95.28773501388183
95.1465386761515
95.00361758502449
94.85880657460017
94.71185653964078
94.56236794620543
94.40965949019409
94.25243685825203
94.08923998486293
93.92429564129324
93.75919717045632
93.59403042242192
93.42867088294061
93.26282986731213
93.09612650813035
92.92813628791453
92.75840599518787
92.58646631379352
72.76932457300191
72.58632840315386
72.61586959392959
72.60867993169038
72.61056656594955
72.60951309741394
72.61229230504364
72.59745479786356
71.32083174887497
71.30982953266926
71.2989713590362
71.28822731675317
71.27757024583264
71.26697691792745
71.25642856213449
71.24591091722307
71.23541404602476
71.2249321012349
95.97603414076167
95.84223811406548
95.70705732573602
95.57046243516857
95.43240959346
95.29283852827876
95.15166784724292
95.00878691977987
94.86404075143177
94.7172003597007
94.56790728977244
94.41555754213692
94.25913766105174
94.0977257717576
93.93496384182308
93.7719471938174
93.60868196778553
93.44506085992325
93.28086076303947
93.11576293407616
92.94937342769802
92.78123924506941
92.61086662595432
72.76698439068244
72.60088957165259
72.62605518550284
72.62001241147327
72.62158172790703
72.62067841038547
72.62315893465221
72.60941259089773
71.3310490075892
71.320141372737
71.30937567750885
71.29871668110395
71.2881334638881
71.27760069041504
71.26709876768528
71.25661336998381
71.24613480102008
71.23565746161592
95.98126163215227
95.84746730339633
95.71229076177633
95.57570464305147
95.43766672877457
95.29811876003077
95.15698276471815
95.01415453678958
94.86949149798134
94.72278937382185
94.57373796467552
94.42183424715562
94.26633045499787
94.10664132930404
93.94595418549397
93.78499797784266
93.62374486461935
93.46209489383871
93.29986174520427
93.13676694676599
92.97243646829745
92.80640158733554
92.63811581632768
72.76084843355878
72.61655908038172
72.63607202437835
72.63151310238717
72.63267125034628
72.63196251652649
72.63405699092763
72.6217185474972
71.34118172682665
71.33040693326203
71.31976982821969
71.30922717113803
71.29874310440749
71.2882902447183
71.27784882111794
71.2674051653801
71.25695036945798
71.24647940983013
95.98664691362403
95.85285520668883
95.71768524735512
95.58111140663917
95.44309323554893
95.30357478614694
95.16248201224553
95.01971805951648
94.87515458980447
94.72861543620695
94.57984524430198
94.42845541420499
94.27393369911505
94.11593652542484
93.95729363708692
93.79841575895858
93.63927093070399
93.47977789798125
93.31978869289097
93.15906955343044
92.997270580003
92.83389607394504
92.66830307585832
72.75088267832346
72.63335081989663
72.64591517069587
72.64318370628268
72.64383452107221
72.64336591641332
72.64498554981598
72.63437490399183
71.35122415789469
71.34063127071634
71.33016731135474
71.31977703833302
71.30941903859248
71.29906522529869
71.28869750832126
71.27830420256687
71.26787803135903
71.2574150049632
95.99218977464652
95.85840150501598
95.72324030604373
95.5866821131458
95.44868832314232
95.30920551353636
95.16816393021848
95.02547473737232
94.88102512130403
94.73466936601503
94.58621188043222
94.4353837288352
94.28188028841251
94.12555801768923
93.96895419997531
93.81217968530537
93.6552191834179
93.4980257864384
93.34050570027023
93.18249564440677
93.02371928744624
92.86366772980925
92.70154271234492
72.73704419645263
72.65128214837893
72.65557846942124
72.65502633335521
72.65507077339132
72.65488923478634
72.65594342539677
72.64738457430956
71.36116856120955
71.35082519898664
71.3405913886579
71.33039454704456
71.3201887477263
71.30995100534292
71.2996680518687
71.28933201393899
71.27893826614878
71.26848436842837
95.99788986297536
95.86410576831082
95.72895536671118
95.59241604532265
95.45445107925975
95.31500969891921
95.17402665776095
95.03142151958761
94.88709769413963
94.74094118682795
94.59281882022714
94.44258152261047
94.2901115333587
94.13544765446493
93.98087566373783
93.82621527129909
93.67148146453114
93.51667531277513
93.36177576343576
93.20672561974229
93.05139864207123
92.89551915597318
92.73798102709776
72.71927927228447
72.67037441103777
72.66505440524804
72.6670435439849
72.6663790705592
72.66653323835061
72.66692911616568
72.6607513434632
71.37100449503909
71.36101111039389
71.35108829058458
71.34112128223192
71.33108816553968
71.32097851193166
71.31078757120737
71.30051309862796
71.2901540474913
71.27970997090509
96.00374670300386
95.86996745883799
95.7348297621186
95.59831238529407
95.46038048039651
95.32098597086666
95.18006817677099
95.03755514184724
94.89336660171975
94.74742041817598
94.59964606934612
94.4500118366957
94.29857364565123
94.1455438800869
93.99297930617024
93.84041593970778
93.68790538882122
93.53550382633853
93.38327408361536
93.23128884571199
93.07963572033965
92.928425880489
75.25962067678472
75.25962067678472
75.25962067678472
75.25962067678472
75.25962067678472
75.25962067678472
75.25962067678472
75.25962067678472
75.25962067678472
75.25962067678472
71.37130429181947
71.36173088427182
71.35201261655311
71.34216056062506
71.332182943041
71.32208588640513
71.3118738399864
71.30154983768243
71.29111565317214
96.92912854299804
96.79698626585602
96.66639141413496
96.5373619006569
96.40992744542183
96.28412972382174
96.16002255346167
96.03767199426521
95.91715610835257
95.79856388326075
95.68199233640195
95.56753997458321
95.45529438015612
95.3453142051726
95.237412972909
95.12975373349195
95.02233397498802
94.91515003182398
94.80819651319662
94.7014654343669
94.59494484286907
94.48861648253398
75.25962067678472
75.25962067678472
75.25962067678472
75.25962067678472
75.25962067678472
75.25962067678472
75.25962067678472
75.25962067678472
75.25962067678472
75.25962067678472
72.70425448017507
72.69066026683197
72.67745309519981
72.66462883463156
72.65218429100018
72.64011700491824
72.6284251340018
72.61710738201158
72.60616295607647
97.53911568175725
97.40672150516109
97.27511134051763
97.1442784706402
97.01421148706584
96.88489412286124
96.75630502227963
96.62841747899185
96.5011992089644
96.37461229011174
96.24861353386872
96.12315578662925
95.99819077976053
95.87367349377722
95.75034211294255
95.62709544871545
95.50393109096396
95.3808469004357
95.25784116135262
95.13491281412574
95.01206182418645
94.88928980984804
75.25962067678472
75.25962067678472
75.25962067678472
75.25962067678472
75.25962067678472
75.25962067678472
75.25962067678472
75.25962067678472
75.25962067678472
75.25962067678472
72.72107143909096
72.71010741691204
72.6991665983907
72.68825059267661
72.67736067432871
72.66649783858979
72.655662833871
72.64485618144346
72.63407818739525
97.86102031926963
97.72865530878705
97.59700288755703
97.46606509428995
97.33584528539828
97.206348222633
97.07758019600436
96.94954917471107
96.82226496982535
96.695739374764
96.56998621340855
96.44502116183405
96.32086117399464
96.19752351169149
96.0755862109965
95.95377355154938
95.83208681310289
95.71052721587438
95.58909588066851
95.46779376740939
95.34662157700477
95.22557958349088
75.25962067678472
75.25962067678472
75.25962067678472
75.25962067678472
75.25962067678472
75.25962067678472
75.25962067678472
75.25962067678472
75.25962067678472
75.25962067678472
72.72094923123068
72.709318734886
72.69780523600855
72.68640814444342
72.67512698117267
72.66396136305082
72.65291099374372
72.64197565818132
72.63115521916309
98.04226641736695
97.90989951453157
97.7781658906276
97.64706506846652
97.51659614262974
97.3867577437112
97.25754798764734
97.12896441152651
97.00100389953784
96.87366260739107
96.7469359032828
96.62081836092563
96.4953038504772
96.37038572890964
96.2467491432589
96.12321454899445
95.999781377119
95.87644906949824
95.75321708906444
95.63008493583514
95.50705217280692
95.38411847061464
75.25962067678472
75.25962067678472
75.25962067678472
75.25962067678472
75.25962067678472
75.25962067678472
75.25962067678472
75.25962067678472
75.25962067678472
75.25962067678472
72.72095033335191
72.70949394188281
72.69812962258459
72.6868575440385
72.6756778392525
72.664590609908
72.65359592891183
72.6426938419767
72.6318843685974
98.13913179282162
98.00676360037689
97.87498641631402
97.74380045860089
97.61320601772931
97.48320346968414
97.35379329448412
97.22497610013977
97.09675265132451
96.96912390084638
96.84209101940138
96.71565541434234
96.58981872524494
96.4645827956688
96.34063658913121
96.21679427563166
96.09305603724985
95.96942205429723
95.84589250276201
95.72246755018247
95.59914734885103
95.47593202394694
75.25962067678472
75.25962067678472
75.25962067678472
75.25962067678472
75.25962067678472
75.25962067678472
75.25962067678472
75.25962067678472
75.25962067678472
75.25962067678472
72.72096618464026
72.70946416130069
72.69806085542449
72.68675618756458
72.67555008931319
72.66444250210681
72.65343337649809
72.64252267169893
72.63171035529543
98.18650985312557
98.05414197277061
97.92234614681134
97.79112243105213
97.66047083694932
97.530391326977
97.40088380794367
97.2719481222129
97.14358403691095
97.01579123152467
96.88856928502062
96.7619176649752
96.63583572208805
96.51032269021154
96.38608323721871
96.26194454722602
96.13790655002546
96.01396917515714
95.89013235256232
95.76639601368707
95.64276009335093
95.51922453306969
75.25962067678472
75.25962067678472
75.25962067678472
75.25962067678472
75.25962067678472
75.25962067678472
75.25962067678472
75.25962067678472
75.25962067678472
75.25962067678472
72.72095816491696
72.70946832487523
72.69807539665477
72.68677938077768
72.67558027405516
72.66447806994812
72.65347275879051
72.64256432793158
72.63175276182555
98.20065091096541
98.06828276817733
97.93648034371876
97.80524374456047
97.67457307300775
97.5444684293724
97.41492991585356
97.28595764169069
97.15755172960148
97.02971232336955
96.9024395960922
96.77573375792286
96.64959506169123
96.52402380637658
96.39972624014977
96.27552952969965
96.15143371512973
96.0274388366439
95.90354493425542
95.77975204727075
95.6560602133896
95.53246946707654
75.25962067678472
75.25962067678472
75.25962067678472
75.25962067678472
75.25962067678472
75.25962067678472
75.25962067678472
75.25962067678472
75.25962067678472
75.25962067678472
72.72096180171997
72.7094679836065
72.69807167821041
72.68677285497996
72.67557148530932
72.66446754235002
72.65346100089268
72.64255183729098
72.63174002941327
98.18650985312534
98.05414197277035
97.92234614681102
97.79112243105173
97.66047083694873
97.53039132697617
97.40088380794266
97.2719481222118
97.14358403690973
97.01579123152324
96.88856928501892
96.76191766497321
96.63583572208574
96.5103226902089
96.38608323721574
96.26194454722275
96.13790655002194
96.01396917515336
95.89013235255831
95.76639601368292
95.64276009334671
95.5192245330654
75.25962067678472
75.25962067678472
75.25962067678472
75.25962067678472
75.25962067678472
75.25962067678472
75.25962067678472
75.25962067678472
75.25962067678472
75.25962067678472
72.72095816490987
72.70946832486813
72.69807539664767
72.68677938077056
72.67558027404802
72.66447806994091
72.6534727587833
72.64256432792436
72.63175276181835
98.13913179282602
98.00676360038129
97.87498641631844
97.74380045860536
97.61320601773387
97.4832034696888
97.3537932944888
97.22497610014442
97.0967526513291
96.969123900851
96.84209101940611
96.71565541434721
96.58981872524993
96.46458279567399
96.3406365891366
96.21679427563718
96.09305603725551
95.9694220543031
95.845892502768
95.72246755018853
95.59914734885706
95.47593202395295
75.25962067678472
75.25962067678472
75.25962067678472
75.25962067678472
75.25962067678472
75.25962067678472
75.25962067678472
75.25962067678472
75.25962067678472
75.25962067678472
72.72096618461833
72.70946416127865
72.69806085540233
72.6867561875423
72.67555008929078
72.66444250208431
72.65343337647553
72.64252267167635
72.63171035527284
98.04226641737397
97.90989951453862
97.77816589063475
97.64706506847371
97.5165961426369
97.38675774371823
97.25754798765435
97.12896441153347
97.00100389954473
96.87366260739776
96.7469359032892
96.62081836093168
96.4953038504829
96.37038572891495
96.2467491432639
96.12321454899921
95.99978137712363
95.87644906950273
95.75321708906883
95.63008493583942
95.50705217281119
95.38411847061886
75.25962067678472
75.25962067678472
75.25962067678472
75.25962067678472
75.25962067678472
75.25962067678472
75.25962067678472
75.25962067678472
75.25962067678472
75.25962067678472
72.72095033335036
72.70949394188126
72.69812962258307
72.68685754403703
72.67567783925108
72.66459060990665
72.65359592891048
72.64269384197532
72.63188436859602
97.86102031928601
97.72865530880344
97.59700288757335
97.46606509430622
97.3358452854145
97.2063482226492
97.07758019602049
96.94954917472715
96.82226496984146
96.69573937478015
96.56998621342477
96.44502116185033
96.32086117401096
96.1975235117078
96.0755862110128
95.95377355156566
95.83208681311908
95.71052721589037
95.58909588068441
95.46779376742519
95.34662157702037
95.22557958350635
75.25962067678472
75.25962067678472
75.25962067678472
75.25962067678472
75.25962067678472
75.25962067678472
75.25962067678472
75.25962067678472
75.25962067678472
75.25962067678472
72.72094923122727
72.70931873488256
72.69780523600507
72.68640814443992
72.67512698116914
72.66396136304728
72.65291099374016
72.6419756581778
72.63115521915958
97.53911568177782
97.40672150518166
97.27511134053829
97.14427847066096
97.01421148708673
96.88489412288223
96.75630502230075
96.62841747901304
96.50119920898565
96.37461229013309
96.24861353389015
96.12315578665077
95.9981907797822
95.87367349379909
95.75034211296465
95.62709544873778
95.50393109098648
95.38084690045847
95.2578411613755
95.13491281414873
95.01206182420952
94.88928980987112
75.25962067678472
75.25962067678472
75.25962067678472
75.25962067678472
75.25962067678472
75.25962067678472
75.25962067678472
75.25962067678472
75.25962067678472
75.25962067678472
72.7210714390766
72.71010741689759
72.69916659837617
72.688250592662
72.67736067431409
72.66649783857517
72.6556628338564
72.64485618142889
72.63407818738068
96.9291285430032
96.79698626586118
96.66639141414011
96.53736190066206
96.40992744542694
96.28412972382681
96.16002255346665
96.03767199427011
95.91715610835745
95.79856388326563
95.68199233640685
95.56753997458812
95.45529438016102
95.34531420517749
95.23741297291383
95.12975373349674
95.02233397499273
94.91515003182857
94.8081965132012
94.70146543437141
94.59494484287346
94.48861648253829
75.25962067678472
75.25962067678472
75.25962067678472
75.25962067678472
75.25962067678472
75.25962067678472
75.25962067678472
75.25962067678472
75.25962067678472
75.25962067678472
72.70425448017633
72.69066026683323
72.67745309520106
72.66462883463284
72.65218429100143
72.64011700491942
72.6284251340029
72.61710738201263
72.6061629560775
96.00374670300428
95.86996745883843
95.734829762119
95.59831238529442
95.46038048039686
95.32098597086706
95.18006817677148
95.03755514184783
94.89336660172046
94.74742041817674
94.59964606934695
94.45001183669658
94.29857364565218
94.14554388008789
93.9929793061713
93.84041593970893
93.68790538882247
93.53550382633995
93.38327408361681
93.23128884571351
93.07963572034123
92.92842588049064
75.25962067678472
75.25962067678472
75.25962067678472
75.25962067678472
75.25962067678472
75.25962067678472
75.25962067678472
75.25962067678472
75.25962067678472
75.25962067678472
71.37130429180833
71.36173088426078
71.35201261654217
71.34216056061415
71.33218294303018
71.32208588639438
71.31187383997573
71.30154983767179
71.29111565316148
95.99788986297588
95.86410576831122
95.72895536671157
95.592416045323
95.45445107926005
95.31500969891952
95.17402665776153
95.03142151958828
94.88709769414037
94.74094118682883
94.59281882022799
94.44258152261149
94.29011153335978
94.13544765446608
93.98087566373901
93.82621527130027
93.67148146453243
93.51667531277653
93.36177576343724
93.2067256197438
93.05139864207283
92.89551915597481
92.73798102709945
72.71927927229311
72.67037441106851
72.66505440525954
72.6670435439956
72.666379070602
72.6665332383605
72.66692911616391
72.66075134346512
71.37100449502792
71.36101111038275
71.35108829057349
71.3411212822209
71.33108816552873
71.32097851192079
71.31078757119653
71.30051309861713
71.29015404748054
71.27970997089429
95.99218977464712
95.85840150501635
95.72324030604415
95.58668211314618
95.44868832314262
95.30920551353668
95.16816393021914
95.02547473737307
94.88102512130484
94.73466936601599
94.58621188043298
94.43538372883629
94.2818802884137
94.12555801769045
93.96895419997655
93.81217968530665
93.65521918341922
93.49802578643977
93.34050570027166
93.18249564440823
93.02371928744773
92.86366772981084
92.7015427123466
72.73704419646143
72.6512821484098
72.65557846943274
72.65502633336597
72.65507077343435
72.65488923479617
72.65594342539501
72.64738457431137
71.36116856119833
71.35082519897544
71.34059138864677
71.3303945470335
71.32018874771526
71.30995100533195
71.29966805185776
71.28933201392805
71.27893826613786
71.26848436841746
95.98664691362464
95.85285520668926
95.71768524735556
95.58111140663945
95.44309323554934
95.30357478614728
95.16248201224614
95.01971805951733
94.87515458980542
94.72861543620795
94.57984524430289
94.42845541420625
94.27393369911636
94.11593652542615
93.9572936370882
93.79841575895993
93.63927093070534
93.47977789798263
93.31978869289239
93.15906955343193
92.99727058000457
92.83389607394655
92.66830307585987
72.75088267833236
72.63335081992767
72.64591517070744
72.64318370629361
72.64383452111537
72.64336591642319
72.64498554981424
72.63437490399359
71.35122415788345
71.34063127070517
71.33016731134354
71.31977703832186
71.30941903858141
71.29906522528763
71.28869750831026
71.27830420255589
71.26787803134805
71.25741500495222
95.98126163215284
95.84746730339685
95.71229076177679
95.57570464305175
95.43766672877506
95.29811876003106
95.15698276471878
95.01415453679044
94.86949149798234