# vtk DataFile Version 2.0
Niestacjonarne zagadnienie cieplne - ogrzewanie wody w garnku stalowym
ASCII
DATASET UNSTRUCTURED_GRID
POINTS 1353 float
0.0 0.0 0.0
0.0 3.846153846153846E-4 0.0
0.0 7.692307692307692E-4 0.0
0.0 0.0011538461538461537 0.0
0.0 0.0015384615384615385 0.0
0.0 0.0019230769230769232 0.0
0.0 0.0023076923076923075 0.0
0.0 0.002692307692307692 0.0
0.0 0.003076923076923077 0.0
0.0 0.0034615384615384616 0.0
0.0 0.0038461538461538464 0.0
0.0 0.004230769230769231 0.0
0.0 0.004615384615384615 0.0
0.0 0.005 0.0
0.0 0.005111111111111111 0.0
0.0 0.005222222222222223 0.0
0.0 0.005333333333333333 0.0
0.0 0.0054444444444444445 0.0
0.0 0.005555555555555556 0.0
0.0 0.005666666666666667 0.0
0.0 0.0057777777777777775 0.0
0.0 0.005888888888888889 0.0
0.0 0.006 0.0
0.0 0.01711111111111111 0.0
0.0 0.028222222222222225 0.0
0.0 0.03933333333333333 0.0
0.0 0.050444444444444445 0.0
0.0 0.06155555555555556 0.0
0.0 0.07266666666666667 0.0
0.0 0.08377777777777778 0.0
0.0 0.0948888888888889 0.0
0.0 0.10600000000000001 0.0
0.0 0.10611111111111113 0.0
0.0 0.10622222222222223 0.0
0.0 0.10633333333333335 0.0
0.0 0.10644444444444445 0.0
0.0 0.10655555555555557 0.0
0.0 0.10666666666666667 0.0
0.0 0.10677777777777779 0.0
0.0 0.1068888888888889 0.0
0.0 0.10700000000000001 0.0
1.1111111111111112E-4 0.0 0.0
1.1111111111111112E-4 3.846153846153846E-4 0.0
1.1111111111111112E-4 7.692307692307692E-4 0.0
1.1111111111111112E-4 0.0011538461538461537 0.0
1.1111111111111112E-4 0.0015384615384615385 0.0
1.1111111111111112E-4 0.0019230769230769232 0.0
1.1111111111111112E-4 0.0023076923076923075 0.0
1.1111111111111112E-4 0.002692307692307692 0.0
1.1111111111111112E-4 0.003076923076923077 0.0
1.1111111111111112E-4 0.0034615384615384616 0.0
1.1111111111111112E-4 0.0038461538461538464 0.0
1.1111111111111112E-4 0.004230769230769231 0.0
1.1111111111111112E-4 0.004615384615384615 0.0
1.1111111111111112E-4 0.005 0.0
1.1111111111111112E-4 0.005111111111111111 0.0
1.1111111111111112E-4 0.005222222222222223 0.0
1.1111111111111112E-4 0.005333333333333333 0.0
1.1111111111111112E-4 0.0054444444444444445 0.0
1.1111111111111112E-4 0.005555555555555556 0.0
1.1111111111111112E-4 0.005666666666666667 0.0
1.1111111111111112E-4 0.0057777777777777775 0.0
1.1111111111111112E-4 0.005888888888888889 0.0
1.1111111111111112E-4 0.006 0.0
1.1111111111111112E-4 0.01711111111111111 0.0
1.1111111111111112E-4 0.028222222222222225 0.0
1.1111111111111112E-4 0.03933333333333333 0.0
1.1111111111111112E-4 0.050444444444444445 0.0
1.1111111111111112E-4 0.06155555555555556 0.0
1.1111111111111112E-4 0.07266666666666667 0.0
1.1111111111111112E-4 0.08377777777777778 0.0
1.1111111111111112E-4 0.0948888888888889 0.0
1.1111111111111112E-4 0.10600000000000001 0.0
1.1111111111111112E-4 0.10611111111111113 0.0
1.1111111111111112E-4 0.10622222222222223 0.0
1.1111111111111112E-4 0.10633333333333335 0.0
1.1111111111111112E-4 0.10644444444444445 0.0
1.1111111111111112E-4 0.10655555555555557 0.0
1.1111111111111112E-4 0.10666666666666667 0.0
1.1111111111111112E-4 0.10677777777777779 0.0
1.1111111111111112E-4 0.1068888888888889 0.0
1.1111111111111112E-4 0.10700000000000001 0.0
2.2222222222222223E-4 0.0 0.0
2.2222222222222223E-4 3.846153846153846E-4 0.0
2.2222222222222223E-4 7.692307692307692E-4 0.0
2.2222222222222223E-4 0.0011538461538461537 0.0
2.2222222222222223E-4 0.0015384615384615385 0.0
2.2222222222222223E-4 0.0019230769230769232 0.0
2.2222222222222223E-4 0.0023076923076923075 0.0
2.2222222222222223E-4 0.002692307692307692 0.0
2.2222222222222223E-4 0.003076923076923077 0.0
2.2222222222222223E-4 0.0034615384615384616 0.0
2.2222222222222223E-4 0.0038461538461538464 0.0
2.2222222222222223E-4 0.004230769230769231 0.0
2.2222222222222223E-4 0.004615384615384615 0.0
2.2222222222222223E-4 0.005 0.0
2.2222222222222223E-4 0.005111111111111111 0.0
2.2222222222222223E-4 0.005222222222222223 0.0
2.2222222222222223E-4 0.005333333333333333 0.0
2.2222222222222223E-4 0.0054444444444444445 0.0
2.2222222222222223E-4 0.005555555555555556 0.0
2.2222222222222223E-4 0.005666666666666667 0.0
2.2222222222222223E-4 0.0057777777777777775 0.0
2.2222222222222223E-4 0.005888888888888889 0.0
2.2222222222222223E-4 0.006 0.0
2.2222222222222223E-4 0.01711111111111111 0.0
2.2222222222222223E-4 0.028222222222222225 0.0
2.2222222222222223E-4 0.03933333333333333 0.0
2.2222222222222223E-4 0.050444444444444445 0.0
2.2222222222222223E-4 0.06155555555555556 0.0
2.2222222222222223E-4 0.07266666666666667 0.0
2.2222222222222223E-4 0.08377777777777778 0.0
2.2222222222222223E-4 0.0948888888888889 0.0
2.2222222222222223E-4 0.10600000000000001 0.0
2.2222222222222223E-4 0.10611111111111113 0.0
2.2222222222222223E-4 0.10622222222222223 0.0
2.2222222222222223E-4 0.10633333333333335 0.0
2.2222222222222223E-4 0.10644444444444445 0.0
2.2222222222222223E-4 0.10655555555555557 0.0
2.2222222222222223E-4 0.10666666666666667 0.0
2.2222222222222223E-4 0.10677777777777779 0.0
2.2222222222222223E-4 0.1068888888888889 0.0
2.2222222222222223E-4 0.10700000000000001 0.0
3.333333333333334E-4 0.0 0.0
3.333333333333334E-4 3.846153846153846E-4 0.0
3.333333333333334E-4 7.692307692307692E-4 0.0
3.333333333333334E-4 0.0011538461538461537 0.0
3.333333333333334E-4 0.0015384615384615385 0.0
3.333333333333334E-4 0.0019230769230769232 0.0
3.333333333333334E-4 0.0023076923076923075 0.0
3.333333333333334E-4 0.002692307692307692 0.0
3.333333333333334E-4 0.003076923076923077 0.0
3.333333333333334E-4 0.0034615384615384616 0.0
3.333333333333334E-4 0.0038461538461538464 0.0
3.333333333333334E-4 0.004230769230769231 0.0
3.333333333333334E-4 0.004615384615384615 0.0
3.333333333333334E-4 0.005 0.0
3.333333333333334E-4 0.005111111111111111 0.0
3.333333333333334E-4 0.005222222222222223 0.0
3.333333333333334E-4 0.005333333333333333 0.0
3.333333333333334E-4 0.0054444444444444445 0.0
3.333333333333334E-4 0.005555555555555556 0.0
3.333333333333334E-4 0.005666666666666667 0.0
3.333333333333334E-4 0.0057777777777777775 0.0
3.333333333333334E-4 0.005888888888888889 0.0
3.333333333333334E-4 0.006 0.0
3.333333333333334E-4 0.01711111111111111 0.0
3.333333333333334E-4 0.028222222222222225 0.0
3.333333333333334E-4 0.03933333333333333 0.0
3.333333333333334E-4 0.050444444444444445 0.0
3.333333333333334E-4 0.06155555555555556 0.0
3.333333333333334E-4 0.07266666666666667 0.0
3.333333333333334E-4 0.08377777777777778 0.0
3.333333333333334E-4 0.0948888888888889 0.0
3.333333333333334E-4 0.10600000000000001 0.0
3.333333333333334E-4 0.10611111111111113 0.0
3.333333333333334E-4 0.10622222222222223 0.0
3.333333333333334E-4 0.10633333333333335 0.0
3.333333333333334E-4 0.10644444444444445 0.0
3.333333333333334E-4 0.10655555555555557 0.0
3.333333333333334E-4 0.10666666666666667 0.0
3.333333333333334E-4 0.10677777777777779 0.0
3.333333333333334E-4 0.1068888888888889 0.0
3.333333333333334E-4 0.10700000000000001 0.0
4.4444444444444447E-4 0.0 0.0
4.4444444444444447E-4 3.846153846153846E-4 0.0
4.4444444444444447E-4 7.692307692307692E-4 0.0
4.4444444444444447E-4 0.0011538461538461537 0.0
4.4444444444444447E-4 0.0015384615384615385 0.0
4.4444444444444447E-4 0.0019230769230769232 0.0
4.4444444444444447E-4 0.0023076923076923075 0.0
4.4444444444444447E-4 0.002692307692307692 0.0
4.4444444444444447E-4 0.003076923076923077 0.0
4.4444444444444447E-4 0.0034615384615384616 0.0
4.4444444444444447E-4 0.0038461538461538464 0.0
4.4444444444444447E-4 0.004230769230769231 0.0
4.4444444444444447E-4 0.004615384615384615 0.0
4.4444444444444447E-4 0.005 0.0
4.4444444444444447E-4 0.005111111111111111 0.0
4.4444444444444447E-4 0.005222222222222223 0.0
4.4444444444444447E-4 0.005333333333333333 0.0
4.4444444444444447E-4 0.0054444444444444445 0.0
4.4444444444444447E-4 0.005555555555555556 0.0
4.4444444444444447E-4 0.005666666666666667 0.0
4.4444444444444447E-4 0.0057777777777777775 0.0
4.4444444444444447E-4 0.005888888888888889 0.0
4.4444444444444447E-4 0.006 0.0
4.4444444444444447E-4 0.01711111111111111 0.0
4.4444444444444447E-4 0.028222222222222225 0.0
4.4444444444444447E-4 0.03933333333333333 0.0
4.4444444444444447E-4 0.050444444444444445 0.0
4.4444444444444447E-4 0.06155555555555556 0.0
4.4444444444444447E-4 0.07266666666666667 0.0
4.4444444444444447E-4 0.08377777777777778 0.0
4.4444444444444447E-4 0.0948888888888889 0.0
4.4444444444444447E-4 0.10600000000000001 0.0
4.4444444444444447E-4 0.10611111111111113 0.0
4.4444444444444447E-4 0.10622222222222223 0.0
4.4444444444444447E-4 0.10633333333333335 0.0
4.4444444444444447E-4 0.10644444444444445 0.0
4.4444444444444447E-4 0.10655555555555557 0.0
4.4444444444444447E-4 0.10666666666666667 0.0
4.4444444444444447E-4 0.10677777777777779 0.0
4.4444444444444447E-4 0.1068888888888889 0.0
4.4444444444444447E-4 0.10700000000000001 0.0
5.555555555555556E-4 0.0 0.0
5.555555555555556E-4 3.846153846153846E-4 0.0
5.555555555555556E-4 7.692307692307692E-4 0.0
5.555555555555556E-4 0.0011538461538461537 0.0
5.555555555555556E-4 0.0015384615384615385 0.0
5.555555555555556E-4 0.0019230769230769232 0.0
5.555555555555556E-4 0.0023076923076923075 0.0
5.555555555555556E-4 0.002692307692307692 0.0
5.555555555555556E-4 0.003076923076923077 0.0
5.555555555555556E-4 0.0034615384615384616 0.0
5.555555555555556E-4 0.0038461538461538464 0.0
5.555555555555556E-4 0.004230769230769231 0.0
5.555555555555556E-4 0.004615384615384615 0.0
5.555555555555556E-4 0.005 0.0
5.555555555555556E-4 0.005111111111111111 0.0
5.555555555555556E-4 0.005222222222222223 0.0
5.555555555555556E-4 0.005333333333333333 0.0
5.555555555555556E-4 0.0054444444444444445 0.0
5.555555555555556E-4 0.005555555555555556 0.0
5.555555555555556E-4 0.005666666666666667 0.0
5.555555555555556E-4 0.0057777777777777775 0.0
5.555555555555556E-4 0.005888888888888889 0.0
5.555555555555556E-4 0.006 0.0
5.555555555555556E-4 0.01711111111111111 0.0
5.555555555555556E-4 0.028222222222222225 0.0
5.555555555555556E-4 0.03933333333333333 0.0
5.555555555555556E-4 0.050444444444444445 0.0
5.555555555555556E-4 0.06155555555555556 0.0
[...]
POINT_DATA 1353
SCALARS Temperatura float 1
LOOKUP_TABLE default
122.23966657713953
122.11115800107133
121.98099144843121
121.84912564590911
121.71550842718933
121.58006747079085
121.44270269325142
121.30327241321172
121.16156894068953
121.0172629296141
120.86982841075074
120.71821304101336
120.56093706802257
120.39012273927727
120.20719676297654
120.03470075035987
119.86490759542671
119.69638873417688
119.528188629708
119.35961072261256
119.19006251916967
119.01900394693892
118.84592523112524
99.3303488381327
99.1313316325292
99.16538820574691
99.1569653872535
99.15927718813488
99.1577167031262
99.16225923445481
99.13823042023621
97.26982812689293
97.25331022565884
97.2369942523072
97.22084113141494
97.20481411876807
97.18888036888005
97.17301207235307
97.15718717804438
97.14138978461474
97.12561031362522
122.24583734225672
122.11732333682136
121.98715049865427
121.85527900977401
121.72165679652795
121.58621187689965
121.44884460732594
121.30941457416596
121.16771475539547
121.02342496175012
120.87600337167885
120.72452057660935
120.56705454368648
120.39854819430408
120.22545647555891
120.05396735237699
119.88481708399993
119.71668697418117
119.54878505134242
119.38046178849018
119.21114601820673
119.04030640682858
118.86743596607722
99.34472717717284
99.14803933046142
99.18149082699854
99.17322669160538
99.17549351656835
99.17395845626365
99.1784414130879
99.15463431675951
97.28554783327552
97.2690466549824
97.25274720588492
97.23660941297427
97.22059572678889
97.20467273095147
97.18881226606915
97.17299210160019
97.15719626474993
97.14141515852296
122.25217933743
122.12366305732003
121.99348705007549
121.8616141352167
121.72799284113273
121.59255207780463
121.45519376064429
121.31578029036537
121.17411066362287
121.02987488923358
120.88255638760717
120.7312789573502
120.57416350280816
120.4083168874543
120.23965666894654
120.07138015515041
119.90386101769177
119.73688177513858
119.56990358471738
119.40239588024603
119.23383958289871
119.06372498393999
118.89155069778383
99.35541204883894
99.16579951971683
99.19741964708712
99.1896357715551
99.19176645374762
99.19030845294076
99.1946106029814
99.171479021149
97.30110287156313
97.28465975592191
97.26841758322564
97.2523331972023
97.23636660691554
97.22048271826004
97.20465239309537
97.18885294137253
97.17306824093694
97.15728868003788
122.25869357393944
122.13017703493858
122.0000009683271
121.86813083165198
121.73451629780764
121.59908771116714
121.46174949373089
121.32236875200668
121.18075390291841
121.03661229488885
120.88946903083236
120.73850653786663
120.58215033691513
120.41874518398069
120.25328681829842
120.08779002257096
119.92244353090848
119.75715897098168
119.59163570919084
119.42546025111122
119.25817278232331
119.08928628357397
118.91829987201193
99.36239160497993
99.18461693637141
99.213173013901
99.20619320934561
99.20809579067287
99.20676691658632
99.2107663719596
99.18876562240685
97.3164905964785
97.30015045441827
97.28400950939974
97.26801908881272
97.25213500970172
97.2363194892253
97.22054199452666
97.2047793265432
97.18901531974842
97.1732404635717
122.26538052098462
122.13686518575939
122.00669200101552
121.87482877663395
121.74122673147014
121.6058181475291
121.46851081898414
121.32917825807061
121.18764130064204
121.04363191207696
120.89672565029866
120.74619940334455
120.59083921077533
120.42968162294366
120.26694551098218
120.10401626091775
119.94096798062995
119.7777298255294
119.61408610607745
119.44970704462744
119.28417908847881
119.11702691972656
118.94773412506488
99.36564652364375
99.20449935612342
99.22874818894222
99.22289995837833
99.2244811694471
99.22333420825595
99.22690799037
99.20649591505557
97.33170647796969
97.31552078528608
97.29953076368226
97.28367910712315
97.26791554634808
97.25219888962032
97.23649727406878
97.22078739553943
97.20505347720393
97.1892864093625
122.27224031530595
122.14372735445589
122.01355979760447
121.88170751514373
121.74812353747018
121.61274252059795
121.47547638690125
121.3362064697218
121.19476876167192
121.05092547134888
120.90431118231817
120.75432704466107
120.60009443277659
120.44105835133288
120.28083956659854
120.12038405479038
119.95971039692454
119.79874857873894
119.63732513056776
119.47516114268402
119.31187395789007
119.14698214497808
118.9799249314448
99.36514981809398
99.22545765222414
99.24414132918531
99.23975734931453
99.24092208001805
99.24001083234238
99.24303441259063
99.22467246521802
97.34674386073333
97.3307748698607
97.31499450360815
97.29933249763288
97.28373059759116
97.26814430408646
97.25254146761007
97.23689984463827
97.22120493203501
97.20544855079288
122.27927286021612
122.15076327411252
122.02060390776872
121.88876646366207
121.75520594969372
121.61985974627214
121.4826445130672
121.34345052971356
121.20213117344065
121.05848303454445
120.91220773654874
120.76284710081276
120.60981318640358
120.45282213118023
120.29502958547704
120.13701683496573
119.97878412614857
119.82027334322945
119.66134955657394
119.50178329016495
119.34122281858168
119.17916707479144
119.01496611508138
99.36086640735932
99.24750592000971
99.2593474500174
99.25676710182712
99.25741785444659
99.25679744603407
99.25914424647063
99.24329872027971
97.36159356389183
97.34592105558328
97.33042274704276
97.31500895511992
97.29961246678272
97.2841876740333
97.26870513029658
97.2531457956463
97.23749780481353
97.22175465106935
122.28647787647463
122.15797255489835
122.02782377668353
121.89600491495212
121.76247305118268
121.6271685428611
121.49001322648151
121.35090713579503
121.2097225981967
121.06629342909282
120.92039431225402
120.7717135627509
120.61991342123237
120.46491812081648
120.30950700627739
120.15392846340002
119.99818933346553
119.84225986526738
119.6860576286132
119.52942535341198
119.37208862349551
119.21353886292042
119.05297705753232
99.35275222453052
99.27066172814207
99.27436035307664
99.2739313464941
99.2739676569612
99.27369487496985
99.27523570269265
99.26237919162081
97.37624321129508
97.36097711515343
97.34585341644096
97.3307543608405
97.31560580355242
97.30037024843571
97.28502603514767
97.26956028782122
97.25396543120162
97.23823746654102
122.29385493131326
122.16535468380836
122.03521874205504
121.90342204300907
121.76992378608118
121.63466745551177
121.4975803212032
121.35857263025659
121.21753650734246
121.07434453073431
120.9288476866285
120.78088036368463
120.63032536179897
120.47728709237583
120.32422408377012
120.17106760921739
120.017847009662
119.86457530864672
119.71124052002702
119.55779170771254
119.40410661069788
119.24991121125593
119.094109347061
99.34075239452827
99.29494662233199
99.28917248513001
99.29125266622465
99.29057046617658
99.29070414015169
99.29130650748338
99.28191977145728
97.39067606555028
97.37598062268611
97.36136112600704
97.3466361922087
97.33176897840977
97.31674230679162
97.30154830154106
97.28618319997827
97.2706452209831
97.25493359282868
122.30140345715868
122.1729090285861
122.04278803343558
121.91101690822354
121.77755697261826
121.64235488328765
121.50534341029008
121.36644310585261
121.22556600862862
121.08262361312129
120.9375434940249
120.79030263970677
120.64098636806217
120.48986652170673
120.33911099184581
120.18834476075185
120.03762713437762
119.8870215256455
119.73659738944882
119.58643333293423
119.43662216899747
119.28727960560693
102.70082118327214
102.70082118327214
102.70082118327214
102.70082118327214
102.70082118327214
102.70082118327214
102.70082118327214
102.70082118327214
102.70082118327214
102.70082118327214
97.39111378817063
97.37706406801415
97.36274433290392
97.34817229689408
97.33336108738864
97.31832046029679
97.30305749862092
97.2875770303949
97.27188187989029
123.41455968231803
123.28791102018006
123.16288339557326
123.03949683526714
122.91778458586816
122.79779327506418
122.67958309937347
122.56322788562065
122.44881471709506
122.33644251710793
122.22621838808466
122.11824948982019
122.01262796085274
121.9094103700895
121.8082880294247
121.7074084629656
121.60676840936893
121.50636358082991
121.40618813262914
121.30623381593952
121.20648860714908
121.10693435855966
102.70082118327214
102.70082118327214
102.70082118327214
102.70082118327214
102.70082118327214
102.70082118327214
102.70082118327214
102.70082118327214
102.70082118327214
102.70082118327214
99.3452916092629
99.3254178197765
99.30604806136452
99.28717591325669
99.26879643700998
99.25090584604044
99.23350131476099
99.2165808638877
99.20014329125783
124.1424358571868
124.0155039399057
123.88931735952431
123.76386854141093
123.63914463949193
123.51512735014047
123.39179265978827
123.2691105652016
123.14704484734746
123.02555306098182
122.90458706505197
122.78409469906521
122.66402330132946
122.54432472008165
122.42573011512614
122.30720429741262
122.18874467761076
122.07034889953988
121.95201498172432
121.83374154427547
121.71552817676226
121.59737606945706
102.70082118327214
102.70082118327214
102.70082118327214
102.70082118327214
102.70082118327214
102.70082118327214
102.70082118327214
102.70082118327214
102.70082118327214
102.70082118327214
99.37027566552175
99.35424152568366
99.33817924680346
99.32209129806017
99.30597962926379
99.28984576125416
99.27369083847343
99.2575156607719
99.2413207026977
124.52803111809139
124.40113170326794
124.27488698107366
124.14929919891073
124.0243720760846
123.90011090170425
123.77652267092722
123.6536162504647
123.53140255323638
123.40989468022704
123.28910794323112
123.16905960520148
123.0497681466048
122.93125214032457
122.8140708831305
122.69700117592072
122.58004440239951
122.46320189807471
122.34647491344212
122.22986455419891
122.11337168350092
121.99699675335354
102.70082118327214
102.70082118327214
102.70082118327214
102.70082118327214
102.70082118327214
102.70082118327214
102.70082118327214
102.70082118327214
102.70082118327214
102.70082118327214
99.37010756908936
99.35310101511507
99.33620344492064
99.31941398064781
99.30273191503319
99.28615668650039
99.26968786453529
99.25332514075649
99.23706832346035
124.74507977501936
124.61817826076562
124.49183686057005
124.36605500514447
124.24083164274907
124.11616519921218
123.9920535215641
123.86849380710034
123.74548252249858
123.6230153233966
123.50108699681644
123.37969146986181
123.25882193667178
123.13847108361136
123.01932076218799
122.90025644530951
122.78127749954754
122.66238329876212
122.54357323343346
122.42484672617405
122.30620325745615
122.18764241040678
102.70082118327214
102.70082118327214
102.70082118327214
102.70082118327214
102.70082118327214
102.70082118327214
102.70082118327214
102.70082118327214
102.70082118327214
102.70082118327214
99.37010921167868
99.35335669894951
99.336676727848
99.3200695645029
99.30353542091807
99.28707446188177
99.27068680907081
99.25437254358398
99.23813170750289
124.86121343850047
124.73431043530991
124.6079169639114
124.48203323456877
124.35665953715316
124.23179625565022
124.10744388882223
123.98360307678175
123.86027463254283
123.73745957611015
123.61515916545093
123.49337491295559
123.3721085734665
123.25136210897419
123.13182354277454
123.01237275033965
122.8930099250187
122.77373525946913
122.65454894335706
122.53545115938908
122.41644207658489
122.29752183839882
102.70082118327214
102.70082118327214
102.70082118327214
102.70082118327214
102.70082118327214
102.70082118327214
102.70082118327214
102.70082118327214
102.70082118327214
102.70082118327214
99.37013242682202
99.35331333064964
99.3365764920185
99.31992180527251
99.30334918151358
99.28685854666426
99.27044984030171
99.2541230149288
99.23787803552098
124.91804188073583
124.79113921993765
124.66472329687899
124.53879414118153
124.41335173201739
124.28839599292799
124.16392678437364
124.03994389398284
123.9164470246361
123.79343578092455
123.67090965542454
123.54886801787833
123.42731011114545
123.30623505245008
123.18634925022897
123.06654761196177
122.94683005419714
122.82719649285241
122.7076468437854
122.58818102384421
122.46879895270708
122.34950055619844
102.70082118327214
102.70082118327214
102.70082118327214
102.70082118327214
102.70082118327214
102.70082118327214
102.70082118327214
102.70082118327214
102.70082118327214
102.70082118327214
99.37012074363139
99.35331942486106
99.33659772362195
99.3199556536326
99.30339322306135
99.28691043510831
99.27050728836133
99.25418377702134
99.23793989104425
124.93501043224116
124.80810747279675
124.68168367933784
124.55573913882154
124.4302739322917
124.3052881378678
124.18078183507487
124.05675511057488
123.93320806529222
123.81014082273653
123.687553537885
123.5654464051639
123.44381966366606
123.32267360037842
123.20271666726326
123.08284395229171
122.96305549380804
122.84335133045398
122.72373150092209
122.60419604347078
122.48474499504312
122.36537838964635
102.70082118327214
102.70082118327214
102.70082118327214
102.70082118327214
102.70082118327214
102.70082118327214
102.70082118327214
102.70082118327214
102.70082118327214
102.70082118327214
99.37012605776823
99.3533189342794
99.33659230688835
99.31994614307831
99.3033804132994
99.28689509066537
99.2704901507659
99.25416557154658
99.23792133323273
124.9180418807355
124.79113921993729
124.66472329687858
124.53879414118101
124.41335173201665
124.28839599292694
124.16392678437236
124.03994389398142
123.91644702463454
123.79343578092275
123.67090965542236
123.54886801787578
123.42731011114249
123.30623505244671
123.18634925022518
123.06654761195759
122.94683005419265
122.82719649284759
122.70764684378028
122.5881810238389
122.46879895270168
122.34950055619296
102.70082118327214
102.70082118327214
102.70082118327214
102.70082118327214
102.70082118327214
102.70082118327214
102.70082118327214
102.70082118327214
102.70082118327214
102.70082118327214
99.37012074362178
99.35331942485143
99.33659772361233
99.31995565362298
99.30339322305169
99.28691043509858
99.27050728835154
99.25418377701153
99.23793989103446
124.8612134385061
124.73431043531554
124.60791696391706
124.48203323457452
124.35665953715903
124.2317962556562
124.10744388882824
123.9836030767877
123.8602746325487
123.73745957611604
123.61515916545696
123.49337491296178
123.37210857347284
123.25136210898077
123.13182354278138
123.01237275034667
122.89300992502591
122.77373525947662
122.6545489433647
122.53545115939681
122.41644207659259
122.29752183840651
102.70082118327214
102.70082118327214
102.70082118327214
102.70082118327214
102.70082118327214
102.70082118327214
102.70082118327214
102.70082118327214
102.70082118327214
102.70082118327214
99.37013242679197
99.35331333061944
99.33657649198813
99.31992180524196
99.30334918148286
99.28685854663345
99.27044984027081
99.25412301489786
99.23787803549003
124.74507977502839
124.61817826077467
124.49183686057921
124.36605500515371
124.24083164275825
124.11616519922119
123.9920535215731
123.8684938071093
123.74548252250744
123.62301532340523
123.50108699682468
123.3796914698696
123.25882193667914
123.13847108361824
123.01932076219445
122.90025644531566
122.7812774995535
122.66238329876789
122.5435732334391
122.42484672617958
122.30620325746163
122.1876424104122
102.70082118327214
102.70082118327214
102.70082118327214
102.70082118327214
102.70082118327214
102.70082118327214
102.70082118327214
102.70082118327214
102.70082118327214
102.70082118327214
99.37010921167655
99.35335669894738
99.33667672784591
99.32006956450086
99.30353542091608
99.28707446187985
99.27068680906893
99.2543725435821
99.23813170750101
124.52803111811244
124.40113170328894
124.27488698109462
124.14929919893162
124.02437207610544
123.90011090172506
123.77652267094794
123.65361625048534
123.53140255325702
123.40989468024773
123.28910794325189
123.16905960522236
123.04976814662574
122.93125214034553
122.81407088315143
122.69700117594164
122.5800444024203
122.46320189809528
122.34647491346254
122.22986455421918
122.11337168352094
121.99699675337335
102.70082118327214
102.70082118327214
102.70082118327214
102.70082118327214
102.70082118327214
102.70082118327214
102.70082118327214
102.70082118327214
102.70082118327214
102.70082118327214
99.3701075690846
99.35310101511028
99.33620344491581
99.31941398064295
99.30273191502832
99.28615668649549
99.26968786453035
99.25332514075157
99.23706832345545
124.14243585721321
124.01550393993215
123.88931735955087
123.7638685414376
123.63914463951875
123.51512735016742
123.39179265981538
123.26911056522883
123.14704484737477
123.02555306100923
122.9045870650795
122.78409469909288
122.66402330135733
122.54432472010977
122.42573011515455
122.30720429744132
122.1887446776397
122.07034889956913
121.95201498175373
121.83374154430507
121.71552817679196
121.59737606948677
102.70082118327214
102.70082118327214
102.70082118327214
102.70082118327214
102.70082118327214
102.70082118327214
102.70082118327214
102.70082118327214
102.70082118327214
102.70082118327214
99.37027566550222
99.354241525664
99.33817924678368
99.32209129804029
99.30597962924388
99.28984576123425
99.27369083845355
99.25751566075209
99.2413207026779
123.41455968232478
123.28791102018683
123.16288339558002
123.03949683527394
122.91778458587493
122.7977932750709
122.67958309938007
122.56322788562717
122.44881471710156
122.33644251711439
122.22621838809118
122.11824948982671
122.01262796085923
121.90941037009597
121.80828802943108
121.7074084629719
121.60676840937515
121.50636358083595
121.40618813263517
121.30623381594546
121.20648860715484
121.10693435856531
102.70082118327214
102.70082118327214
102.70082118327214
102.70082118327214
102.70082118327214
102.70082118327214
102.70082118327214
102.70082118327214
102.70082118327214
102.70082118327214
99.3452916092646
99.3254178197782
99.3060480613662
99.28717591325838
99.26879643701163
99.25090584604199
99.23350131476245
99.21658086388909
99.20014329125918
122.30140345715942
122.17290902858683
122.04278803343628
121.91101690822416
121.77755697261883
121.64235488328825
121.50534341029088
121.36644310585352
121.22556600862966
121.08262361312246
120.93754349402616
120.79030263970813
120.64098636806362
120.48986652170818
120.33911099184738
120.18834476075355
120.03762713437946
119.88702152564757
119.73659738945094
119.58643333293647
119.4366221689998
119.28727960560937
102.70082118327214
102.70082118327214
102.70082118327214
102.70082118327214
102.70082118327214
102.70082118327214
102.70082118327214
102.70082118327214
102.70082118327214
102.70082118327214
97.39111378815564
97.37706406799927
97.36274433288915
97.34817229687935
97.333361087374
97.31832046028222
97.30305749860642
97.28757703038045
97.27188187987582
122.29385493131416
122.16535468380923
122.03521874205569
121.90342204300968
121.76992378608182
121.63466745551239
121.49758032120405
121.35857263025756
121.21753650734355
121.07434453073557
120.92884768662978
120.7808803636862
120.63032536180054
120.47728709237748
120.32422408377182
120.17106760921916
120.01784700966383
119.8645753086487
119.71124052002908
119.5577917077147
119.40410661070008
119.24991121125825
119.09410934706338
99.34075239453999
99.29494662237408
99.28917248514598
99.2912526662397
99.29057046623515
99.29070414016529
99.29130650748122
99.28191977145988
97.39067606553525
97.37598062267108
97.36136112599205
97.34663619219383
97.33176897839496
97.31674230677683
97.30154830152635
97.28618319996365
97.27064522096845
97.254933592814
122.28647787647566
122.15797255489919
122.02782377668429
121.89600491495277
121.76247305118339
121.62716854286174
121.49001322648238
121.35090713579608
121.20972259819798
121.0662934290942
120.92039431225533
120.7717135627525
120.61991342123409
120.46491812081813
120.30950700627915
120.15392846340181
119.9981893334674
119.84225986526933
119.68605762861516
119.52942535341406
119.3720886234976
119.2135388629226
119.05297705753462
99.35275222454243
99.27066172818431
99.27436035309262
99.27393134650924
99.27396765702002
99.27369487498339
99.27523570269051
99.26237919162332
97.37624321127993
97.36097711513828
97.34585341642591
97.3307543608255
97.31560580353744
97.30037024842083
97.28502603513284
97.2695602878064
97.25396543118671
97.23823746652617
122.27927286021713
122.15076327411347
122.02060390776954
121.88876646366266
121.75520594969446
121.61985974627271
121.48264451306792
121.34345052971476