# vtk DataFile Version 2.0
Niestacjonarne zagadnienie cieplne - ogrzewanie wody w garnku stalowym
ASCII
DATASET UNSTRUCTURED_GRID
POINTS 1353 float
0.0 0.0 0.0
0.0 3.846153846153846E-4 0.0
0.0 7.692307692307692E-4 0.0
0.0 0.0011538461538461537 0.0
0.0 0.0015384615384615385 0.0
0.0 0.0019230769230769232 0.0
0.0 0.0023076923076923075 0.0
0.0 0.002692307692307692 0.0
0.0 0.003076923076923077 0.0
0.0 0.0034615384615384616 0.0
0.0 0.0038461538461538464 0.0
0.0 0.004230769230769231 0.0
0.0 0.004615384615384615 0.0
0.0 0.005 0.0
0.0 0.005111111111111111 0.0
0.0 0.005222222222222223 0.0
0.0 0.005333333333333333 0.0
0.0 0.0054444444444444445 0.0
0.0 0.005555555555555556 0.0
0.0 0.005666666666666667 0.0
0.0 0.0057777777777777775 0.0
0.0 0.005888888888888889 0.0
0.0 0.006 0.0
0.0 0.01711111111111111 0.0
0.0 0.028222222222222225 0.0
0.0 0.03933333333333333 0.0
0.0 0.050444444444444445 0.0
0.0 0.06155555555555556 0.0
0.0 0.07266666666666667 0.0
0.0 0.08377777777777778 0.0
0.0 0.0948888888888889 0.0
0.0 0.10600000000000001 0.0
0.0 0.10611111111111113 0.0
0.0 0.10622222222222223 0.0
0.0 0.10633333333333335 0.0
0.0 0.10644444444444445 0.0
0.0 0.10655555555555557 0.0
0.0 0.10666666666666667 0.0
0.0 0.10677777777777779 0.0
0.0 0.1068888888888889 0.0
0.0 0.10700000000000001 0.0
1.1111111111111112E-4 0.0 0.0
1.1111111111111112E-4 3.846153846153846E-4 0.0
1.1111111111111112E-4 7.692307692307692E-4 0.0
1.1111111111111112E-4 0.0011538461538461537 0.0
1.1111111111111112E-4 0.0015384615384615385 0.0
1.1111111111111112E-4 0.0019230769230769232 0.0
1.1111111111111112E-4 0.0023076923076923075 0.0
1.1111111111111112E-4 0.002692307692307692 0.0
1.1111111111111112E-4 0.003076923076923077 0.0
1.1111111111111112E-4 0.0034615384615384616 0.0
1.1111111111111112E-4 0.0038461538461538464 0.0
1.1111111111111112E-4 0.004230769230769231 0.0
1.1111111111111112E-4 0.004615384615384615 0.0
1.1111111111111112E-4 0.005 0.0
1.1111111111111112E-4 0.005111111111111111 0.0
1.1111111111111112E-4 0.005222222222222223 0.0
1.1111111111111112E-4 0.005333333333333333 0.0
1.1111111111111112E-4 0.0054444444444444445 0.0
1.1111111111111112E-4 0.005555555555555556 0.0
1.1111111111111112E-4 0.005666666666666667 0.0
1.1111111111111112E-4 0.0057777777777777775 0.0
1.1111111111111112E-4 0.005888888888888889 0.0
1.1111111111111112E-4 0.006 0.0
1.1111111111111112E-4 0.01711111111111111 0.0
1.1111111111111112E-4 0.028222222222222225 0.0
1.1111111111111112E-4 0.03933333333333333 0.0
1.1111111111111112E-4 0.050444444444444445 0.0
1.1111111111111112E-4 0.06155555555555556 0.0
1.1111111111111112E-4 0.07266666666666667 0.0
1.1111111111111112E-4 0.08377777777777778 0.0
1.1111111111111112E-4 0.0948888888888889 0.0
1.1111111111111112E-4 0.10600000000000001 0.0
1.1111111111111112E-4 0.10611111111111113 0.0
1.1111111111111112E-4 0.10622222222222223 0.0
1.1111111111111112E-4 0.10633333333333335 0.0
1.1111111111111112E-4 0.10644444444444445 0.0
1.1111111111111112E-4 0.10655555555555557 0.0
1.1111111111111112E-4 0.10666666666666667 0.0
1.1111111111111112E-4 0.10677777777777779 0.0
1.1111111111111112E-4 0.1068888888888889 0.0
1.1111111111111112E-4 0.10700000000000001 0.0
2.2222222222222223E-4 0.0 0.0
2.2222222222222223E-4 3.846153846153846E-4 0.0
2.2222222222222223E-4 7.692307692307692E-4 0.0
2.2222222222222223E-4 0.0011538461538461537 0.0
2.2222222222222223E-4 0.0015384615384615385 0.0
2.2222222222222223E-4 0.0019230769230769232 0.0
2.2222222222222223E-4 0.0023076923076923075 0.0
2.2222222222222223E-4 0.002692307692307692 0.0
2.2222222222222223E-4 0.003076923076923077 0.0
2.2222222222222223E-4 0.0034615384615384616 0.0
2.2222222222222223E-4 0.0038461538461538464 0.0
2.2222222222222223E-4 0.004230769230769231 0.0
2.2222222222222223E-4 0.004615384615384615 0.0
2.2222222222222223E-4 0.005 0.0
2.2222222222222223E-4 0.005111111111111111 0.0
2.2222222222222223E-4 0.005222222222222223 0.0
2.2222222222222223E-4 0.005333333333333333 0.0
2.2222222222222223E-4 0.0054444444444444445 0.0
2.2222222222222223E-4 0.005555555555555556 0.0
2.2222222222222223E-4 0.005666666666666667 0.0
2.2222222222222223E-4 0.0057777777777777775 0.0
2.2222222222222223E-4 0.005888888888888889 0.0
2.2222222222222223E-4 0.006 0.0
2.2222222222222223E-4 0.01711111111111111 0.0
2.2222222222222223E-4 0.028222222222222225 0.0
2.2222222222222223E-4 0.03933333333333333 0.0
2.2222222222222223E-4 0.050444444444444445 0.0
2.2222222222222223E-4 0.06155555555555556 0.0
2.2222222222222223E-4 0.07266666666666667 0.0
2.2222222222222223E-4 0.08377777777777778 0.0
2.2222222222222223E-4 0.0948888888888889 0.0
2.2222222222222223E-4 0.10600000000000001 0.0
2.2222222222222223E-4 0.10611111111111113 0.0
2.2222222222222223E-4 0.10622222222222223 0.0
2.2222222222222223E-4 0.10633333333333335 0.0
2.2222222222222223E-4 0.10644444444444445 0.0
2.2222222222222223E-4 0.10655555555555557 0.0
2.2222222222222223E-4 0.10666666666666667 0.0
2.2222222222222223E-4 0.10677777777777779 0.0
2.2222222222222223E-4 0.1068888888888889 0.0
2.2222222222222223E-4 0.10700000000000001 0.0
3.333333333333334E-4 0.0 0.0
3.333333333333334E-4 3.846153846153846E-4 0.0
3.333333333333334E-4 7.692307692307692E-4 0.0
3.333333333333334E-4 0.0011538461538461537 0.0
3.333333333333334E-4 0.0015384615384615385 0.0
3.333333333333334E-4 0.0019230769230769232 0.0
3.333333333333334E-4 0.0023076923076923075 0.0
3.333333333333334E-4 0.002692307692307692 0.0
3.333333333333334E-4 0.003076923076923077 0.0
3.333333333333334E-4 0.0034615384615384616 0.0
3.333333333333334E-4 0.0038461538461538464 0.0
3.333333333333334E-4 0.004230769230769231 0.0
3.333333333333334E-4 0.004615384615384615 0.0
3.333333333333334E-4 0.005 0.0
3.333333333333334E-4 0.005111111111111111 0.0
3.333333333333334E-4 0.005222222222222223 0.0
3.333333333333334E-4 0.005333333333333333 0.0
3.333333333333334E-4 0.0054444444444444445 0.0
3.333333333333334E-4 0.005555555555555556 0.0
3.333333333333334E-4 0.005666666666666667 0.0
3.333333333333334E-4 0.0057777777777777775 0.0
3.333333333333334E-4 0.005888888888888889 0.0
3.333333333333334E-4 0.006 0.0
3.333333333333334E-4 0.01711111111111111 0.0
3.333333333333334E-4 0.028222222222222225 0.0
3.333333333333334E-4 0.03933333333333333 0.0
3.333333333333334E-4 0.050444444444444445 0.0
3.333333333333334E-4 0.06155555555555556 0.0
3.333333333333334E-4 0.07266666666666667 0.0
3.333333333333334E-4 0.08377777777777778 0.0
3.333333333333334E-4 0.0948888888888889 0.0
3.333333333333334E-4 0.10600000000000001 0.0
3.333333333333334E-4 0.10611111111111113 0.0
3.333333333333334E-4 0.10622222222222223 0.0
3.333333333333334E-4 0.10633333333333335 0.0
3.333333333333334E-4 0.10644444444444445 0.0
3.333333333333334E-4 0.10655555555555557 0.0
3.333333333333334E-4 0.10666666666666667 0.0
3.333333333333334E-4 0.10677777777777779 0.0
3.333333333333334E-4 0.1068888888888889 0.0
3.333333333333334E-4 0.10700000000000001 0.0
4.4444444444444447E-4 0.0 0.0
4.4444444444444447E-4 3.846153846153846E-4 0.0
4.4444444444444447E-4 7.692307692307692E-4 0.0
4.4444444444444447E-4 0.0011538461538461537 0.0
4.4444444444444447E-4 0.0015384615384615385 0.0
4.4444444444444447E-4 0.0019230769230769232 0.0
4.4444444444444447E-4 0.0023076923076923075 0.0
4.4444444444444447E-4 0.002692307692307692 0.0
4.4444444444444447E-4 0.003076923076923077 0.0
4.4444444444444447E-4 0.0034615384615384616 0.0
4.4444444444444447E-4 0.0038461538461538464 0.0
4.4444444444444447E-4 0.004230769230769231 0.0
4.4444444444444447E-4 0.004615384615384615 0.0
4.4444444444444447E-4 0.005 0.0
4.4444444444444447E-4 0.005111111111111111 0.0
4.4444444444444447E-4 0.005222222222222223 0.0
4.4444444444444447E-4 0.005333333333333333 0.0
4.4444444444444447E-4 0.0054444444444444445 0.0
4.4444444444444447E-4 0.005555555555555556 0.0
4.4444444444444447E-4 0.005666666666666667 0.0
4.4444444444444447E-4 0.0057777777777777775 0.0
4.4444444444444447E-4 0.005888888888888889 0.0
4.4444444444444447E-4 0.006 0.0
4.4444444444444447E-4 0.01711111111111111 0.0
4.4444444444444447E-4 0.028222222222222225 0.0
4.4444444444444447E-4 0.03933333333333333 0.0
4.4444444444444447E-4 0.050444444444444445 0.0
4.4444444444444447E-4 0.06155555555555556 0.0
4.4444444444444447E-4 0.07266666666666667 0.0
4.4444444444444447E-4 0.08377777777777778 0.0
4.4444444444444447E-4 0.0948888888888889 0.0
4.4444444444444447E-4 0.10600000000000001 0.0
4.4444444444444447E-4 0.10611111111111113 0.0
4.4444444444444447E-4 0.10622222222222223 0.0
4.4444444444444447E-4 0.10633333333333335 0.0
4.4444444444444447E-4 0.10644444444444445 0.0
4.4444444444444447E-4 0.10655555555555557 0.0
4.4444444444444447E-4 0.10666666666666667 0.0
4.4444444444444447E-4 0.10677777777777779 0.0
4.4444444444444447E-4 0.1068888888888889 0.0
4.4444444444444447E-4 0.10700000000000001 0.0
5.555555555555556E-4 0.0 0.0
5.555555555555556E-4 3.846153846153846E-4 0.0
5.555555555555556E-4 7.692307692307692E-4 0.0
5.555555555555556E-4 0.0011538461538461537 0.0
5.555555555555556E-4 0.0015384615384615385 0.0
5.555555555555556E-4 0.0019230769230769232 0.0
5.555555555555556E-4 0.0023076923076923075 0.0
5.555555555555556E-4 0.002692307692307692 0.0
5.555555555555556E-4 0.003076923076923077 0.0
5.555555555555556E-4 0.0034615384615384616 0.0
5.555555555555556E-4 0.0038461538461538464 0.0
5.555555555555556E-4 0.004230769230769231 0.0
5.555555555555556E-4 0.004615384615384615 0.0
5.555555555555556E-4 0.005 0.0
5.555555555555556E-4 0.005111111111111111 0.0
5.555555555555556E-4 0.005222222222222223 0.0
5.555555555555556E-4 0.005333333333333333 0.0
5.555555555555556E-4 0.0054444444444444445 0.0
5.555555555555556E-4 0.005555555555555556 0.0
5.555555555555556E-4 0.005666666666666667 0.0
5.555555555555556E-4 0.0057777777777777775 0.0
5.555555555555556E-4 0.005888888888888889 0.0
5.555555555555556E-4 0.006 0.0
5.555555555555556E-4 0.01711111111111111 0.0
5.555555555555556E-4 0.028222222222222225 0.0
5.555555555555556E-4 0.03933333333333333 0.0
5.555555555555556E-4 0.050444444444444445 0.0
5.555555555555556E-4 0.06155555555555556 0.0
[...]
POINT_DATA 1353
SCALARS Temperatura float 1
LOOKUP_TABLE default
88.55271543662887
88.41744102992979
88.2808602469509
88.14293567281211
88.00362190643673
87.86285705952308
87.72055663974324
87.57660278984932
87.43082534811487
87.28295972156128
87.13258701879198
86.97889531314608
86.82070630720192
86.65243958243171
86.47576393678855
86.30583112601846
86.13743502665703
85.96954560037692
85.80143998284544
85.63256002066922
85.4624099653392
85.29052377636772
85.11645307329788
65.26710650743001
65.06094545005988
65.09637732976206
65.08766026120539
65.08994508492194
65.08878943686985
65.09156034058213
65.07752634233415
63.97103747939552
63.96145006554168
63.95199242064618
63.942644808488986
63.933388656284514
63.924207353524245
63.915086831728296
63.906015932611375
63.8969866076846
63.88799400645056
88.55687133828722
88.42159104691514
88.28500343903086
88.14707254149486
88.00775301845745
87.8669832581139
87.72467911743311
87.58072368509308
87.43494744020578
87.28709225299124
87.13672946914427
86.98313025511965
86.82482567825735
86.65811243318441
86.48799034875462
86.31875231153057
86.15081226481635
85.98321364774604
85.8153423884584
85.646671299139
85.47671797879642
85.30502081122172
85.131131428669
65.27448923805933
65.07070687744161
65.10552131527083
65.09696570618583
65.09920626934371
65.09807035980386
65.10080446081622
65.08690328704306
63.98000430975665
63.97042507188846
63.96097551951714
63.95163540815683
63.942385754646935
63.9332096574618
63.924092869682234
63.915024141575365
63.90599538826259
63.89700174982722
88.56117910195876
88.42589597580177
88.28930434516255
88.15137083473911
88.0120506241495
87.87128282415318
87.72898450358117
87.5850409305001
87.43928716836236
87.29147300318088
87.14118879362181
86.98774546404643
86.82971129916935
86.66483415864373
86.49774817606293
86.33074376441694
86.16399652831267
85.9972827821133
85.8301572722539
85.66217116610756
85.4928742853439
85.32181517860356
85.14854348346987
65.27811927193929
65.08156293647988
65.11450839547655
65.1064414834207
65.10854807208048
65.10747196815883
65.11009438910253
65.096597729299
63.98892028067831
63.9793700717278
63.96994919011469
63.96063582038438
63.951409734993824
63.94225317701457
63.93315140041898
63.924092921216875
63.91506957851611
63.90607650502113
88.56563976273378
88.43035571363725
88.29376285883141
88.1558303960407
88.0165145092009
87.8757554638978
87.73347228319722
87.58955386602327
87.44384248826576
87.296101311809
87.14595203271466
86.99275173416898
86.83528502626265
86.67214682578744
86.50734728364364
86.34236102201075
86.17724490824482
86.0118642468193
85.8459337190714
85.6790816487147
85.51089346151218
85.34092546972933
85.16871724963303
65.27798532944018
65.09351824850484
65.12333694835883
65.11608816863935
65.11797031056658
65.11699442452276
65.11942988504737
65.10661028270825
63.9977840141733
63.988285506185406
63.97891550360636
63.96964938034739
63.96046477183736
63.95134254976963
63.94226725661536
63.933227148955474
63.92421404416693
63.91522312689701
88.57025383009132
88.43497021825871
88.29837877439216
88.16045096060296
88.02114431741376
87.88040066995649
87.73814167202619
87.59426116006425
87.44861094827971
87.30097305526441
87.15100761499448
86.99814418226198
86.84142578404243
86.67994225733524
86.51717305440773
86.35413178616456
86.19080544592711
86.02707645923118
85.86271962931309
85.69741932158826
85.53078711416936
85.3623762955635
85.19169948696587
65.27406899197034
65.10658040606614
65.13200427962414
65.12590670217126
65.12747266785436
65.12663798541638
65.12881053597688
65.11694194691559
64.00659314726867
63.99717235564945
63.98787836735724
63.97868215742767
63.969558257068876
63.96048579759469
63.95144864246179
63.94243499520588
63.93343687244035
63.924449663910586
88.57502149731097
88.43973939286501
88.30315180662487
88.16523215336136
88.02593955304071
87.88521774263198
87.74299159678681
87.59916098305105
87.4535893598042
87.30608189438473
87.15634394187947
87.00389947349612
86.84803758640125
86.68816449636773
86.52734541453334
86.36624815950258
86.20483181213056
86.042987986894
85.88052674343888
85.71716973313809
85.5525453560065
85.38618846966898
85.21755661068225
65.26634444235492
65.12076004902154
65.14050659979551
65.13589839613324
65.13705468971574
65.13640300459925
65.13823574735862
65.12759414135641
64.01534420946341
64.00603263539453
63.996844401010705
63.98774387842308
63.978701519242875
63.969694761808405
63.960707322240154
63.95172794799646
63.94274930718225
63.93376726518501
88.57994274019609
88.44466304546955
88.30808158847549
88.17017349196459
88.03089958675051
87.8902058043187
87.74802071666687
87.60425109386408
87.45877374858111
87.31142018828642
87.16194717798797
87.00998571832558
86.85504488574118
86.69676428574492
86.53788185357612
86.3787602666474
86.21935849186875
86.05958875670734
85.89929942034892
85.73825551341713
85.57610765065493
85.4123616456827
85.24637650660283
65.25477795523325
65.13607101023918
65.14883898161953
65.14606494735548
65.1467157796587
65.14628993852952
65.14770472700296
65.13856876120278
64.02403241892091
64.01487047481767
64.00582470529943
63.99684957120241
63.98791092739051
63.97898562278857
63.97005876640763
63.96112074503073
63.95216557460036
63.94318997442615
88.58501736757196
88.4497408771193
88.31316766559965
88.17527439023407
88.03602366348612
87.89536381505478
87.75322745978049
87.60952889731958
87.46415949977411
87.3169793172044
87.16780113219458
87.0163680515926
86.86238478724034
86.70568870537576
86.54874889993667
86.39163747676294
86.23433291107744
86.07678346192581
85.91889213396861
85.76049395354883
85.60131204973817
85.44083743178815
85.27827205323426
65.2393269227678
65.15253058860776
65.15699528226764
65.1564084602914
65.15645519044934
65.15629935535408
65.1572164589678
65.14986827037616
64.03265134219062
64.02369472748899
64.01483841200513
64.00602253739262
63.99720912642525
63.98837928146927
63.97952209863743
63.970631113783575
63.96170253248351
63.95273435375124
88.59024504987829
88.45497248111113
88.31840949254718
88.18053416155777
88.04131091139423
87.90069059116118
87.75861006245727
87.61499151362484
87.4697415334395
87.32274990977331
87.17388792635124
87.0230111707011
86.8700017243047
86.71487990680593
86.5598828317149
86.40479878152108
86.24963870016957
86.09440028947037
85.93905994278438
85.7835586996902
85.62776919977688
85.47141530189167
85.31338806253785
65.21993795590772
65.17016007285444
65.16496799711756
65.16693148897467
65.1662720091868
65.16643195014177
65.16676965929919
65.16149586028453
64.04119231104517
64.03252350897695
64.02392375580402
64.01529706797801
64.00662572957627
63.997901213302626
63.989119649450075
63.98027922088788
63.97137908780154
63.96241889480548
88.59562533741534
88.46035734633656
88.32380643115346
88.18595202235284
88.04676035155411
87.90618482586218
87.7641666104986
87.62063585958009
87.4755144769886
87.32872211819286
87.18018879752613
87.02988034369601
86.87784440219075
86.7242766071955
86.5712024206527
86.41813279627361
86.26511717368007
86.11220968614575
85.95947129915776
85.80697302950851
85.65480101859467
85.50306516189133
67.5293599288425
67.5293599288425
67.5293599288425
67.5293599288425
67.5293599288425
67.5293599288425
67.5293599288425
67.5293599288425
67.5293599288425
67.5293599288425
64.04145325374158
64.03314083561922
64.02471881376815
64.0161963890546
64.007580407449
63.99887596804363
63.990086778177556
63.98121536633534
63.97226321024114
89.46811062287408
89.33442077945774
89.20225762473092
89.07163847601088
88.94259205984295
88.815158656544
88.68939028676184
88.56535082246289
88.44311578447955
88.32277136141421
88.20441172970347
88.08813295858414
87.9740213469177
87.86213613358353
87.75232526913645
87.64275617742494
87.53342655762631
87.4243329194517
87.31546999996728
87.20682988882838
87.09840065361131
86.99016400759035
67.5293599288425
67.5293599288425
67.5293599288425
67.5293599288425
67.5293599288425
67.5293599288425
67.5293599288425
67.5293599288425
67.5293599288425
67.5293599288425
65.19940192990958
65.1875766902294
65.17610553603855
65.16498498182398
65.15421232483719
65.14378547956561
65.13370288059627
65.1239634241055
65.11456643252069
90.04488809982438
89.91095518993671
89.77781718686926
89.64546761497995
89.51389547078466
89.38308506109219
89.25301577887127
89.12366184653973
88.99499208856417
88.86696985704506
88.73955335854644
88.61269684991578
88.486353300057
88.36047857185596
88.23581282838501
88.1112362888672
87.98674659365125
87.86234166459406
87.73801986076529
87.61378021280527
87.48962279202686
87.36554933732364
67.5293599288425
67.5293599288425
67.5293599288425
67.5293599288425
67.5293599288425
67.5293599288425
67.5293599288425
67.5293599288425
67.5293599288425
67.5293599288425
65.21391819531176
65.20438243905433
65.19488434983249
65.1854252945233
65.17600635746565
65.16662838584024
65.15729201649518
65.14799769222506
65.13874567166235
90.3488509156623
90.21494623203104
90.08177044728842
89.94932554135585
89.81761476841784
89.68664274166717
89.55641555247222
89.42694091719994
89.29822833652919
89.17028923553126
89.04313701893861
88.91678691579845
88.79125545004224
88.66655951413567
88.54328242306302
88.42013366108272
88.29711447866417
88.17422606354705
88.05146950000169
87.92884570688751
87.80635533940652
87.68399862146063
67.5293599288425
67.5293599288425
67.5293599288425
67.5293599288425
67.5293599288425
67.5293599288425
67.5293599288425
67.5293599288425
67.5293599288425
67.5293599288425
65.21380891438687
65.20369286808466
65.19369607672719
65.18381803120639
65.17405831680162
65.16441660063194
65.15489262416202
65.1454861986079
65.13619720212269
90.52001133565162
90.38610481800184
90.25285219002706
90.12025300048347
89.98830638517164
89.85701103236848
89.726365133762
89.59636632216117
89.46701159936919
89.33829726196745
89.21021884187104
89.08277109494396
88.95594808178018
88.82974334826363
88.70484296978964
88.5800490862386
88.45536114676365
88.33077861238782
88.20630096645336
88.081927730783
87.95765849162066
87.83349294425237
67.5293599288425
67.5293599288425
67.5293599288425
67.5293599288425
67.5293599288425
67.5293599288425
67.5293599288425
67.5293599288425
67.5293599288425
67.5293599288425
65.21380986425683
65.20384540453772
65.19397851879656
65.18420934813523
65.17453800330833
65.16496456821992
65.15548910203813
65.14611164050739
65.13683219675967
90.61144878201205
90.47754103090402
90.34424724035456
90.21156763050186
90.07950249201252
89.9480521986176
89.81721722505574
89.68699817029423
89.55739578538876
89.42841100421792
89.30004497289313
89.1722990691779
89.04517490017693
88.9186742760876
88.79348642529004
88.66840700837362
88.54343620424338
88.41857418973287
88.29382113697719
88.16917720924167
88.0446425541066
87.92021729160312
67.5293599288425
67.5293599288425
67.5293599288425
67.5293599288425
67.5293599288425
67.5293599288425
67.5293599288425
67.5293599288425
67.5293599288425
67.5293599288425
65.21382364112722
65.20381945165258
65.19391861644613
65.1841210634439
65.17442673001031
65.16483556195215
65.15534751291393
65.14596254399748
65.13668062352434
90.65616464404675
90.52225719649213
90.38894583726707
90.2562306295517
90.12411159389683
89.99258870374409
89.86166187895836
89.73133097732222
89.60159578406012
89.47245599975726
89.34391122771655
89.21596096307454
89.08860458690968
88.96184136592885
88.83637547768356
88.71101502843484
88.58575995170537
88.4606101808728
88.33556564984578
88.21062629418263
88.08579205296827
87.96106287213874
67.5293599288425
67.5293599288425
67.5293599288425
67.5293599288425
67.5293599288425
67.5293599288425
67.5293599288425
67.5293599288425
67.5293599288425
67.5293599288425
65.21381665341255
65.20382307136141
65.19393127298005
65.18414125507309
65.17445301125235
65.16486653223524
65.15538180603056
65.14599881805741
65.13671755122016
90.66950918923774
90.53560148945137
90.40228389002496
90.26955650356726
90.13741943837293
90.00587280100541
89.8749167000512
89.7445512511099
89.61477658303842
89.48559284533162
89.35700021619127
89.22899891020123
89.10158918406086
88.97477134012775
88.8492510057587
88.7238362140328
88.59852700554912
88.47332342095162
88.3482255006256
88.22323328417278
88.09834680950601
87.97356611121869
67.5293599288425
67.5293599288425
67.5293599288425
67.5293599288425
67.5293599288425
67.5293599288425
67.5293599288425
67.5293599288425
67.5293599288425
67.5293599288425
65.21381981770608
65.20382277215457
65.1939280329484
65.18413557008941
65.17444535523771
65.16485736155546
65.15537156360818
65.14598793730114
65.1367064598387
90.65616464404651
90.52225719649186
90.38894583726677
90.25623062955131
90.1241115938963
89.99258870374337
89.86166187895746
89.73133097732124
89.60159578405904
89.472455999756
89.34391122771504
89.21596096307275
89.08860458690759
88.96184136592645
88.83637547768086
88.71101502843185
88.58575995170213
88.46061018086934
88.33556564984211
88.21062629417885
88.08579205296441
87.9610628721348
67.5293599288425
67.5293599288425
67.5293599288425
67.5293599288425
67.5293599288425
67.5293599288425
67.5293599288425
67.5293599288425
67.5293599288425
67.5293599288425
65.21381665340628
65.20382307135513
65.19393127297376
65.18414125506678
65.17445301124603
65.16486653222887
65.15538180602418
65.14599881805101
65.13671755121376
90.61144878201615
90.47754103090811
90.34424724035867
90.21156763050602
90.07950249201677
89.94805219862194
89.81721722506009
89.68699817029852
89.557395785393
89.42841100422218
89.3000449728975
89.17229906918237
89.04517490018152
88.91867427609235
88.79348642529496
88.66840700837867
88.54343620424855
88.41857418973822
88.29382113698263
88.16917720924715
88.04464255411206
87.92021729160858
67.5293599288425
67.5293599288425
67.5293599288425
67.5293599288425
67.5293599288425
67.5293599288425
67.5293599288425
67.5293599288425
67.5293599288425
67.5293599288425
65.21382364110757
65.20381945163284
65.19391861642627
65.18412106342393
65.17442672999022
65.16483556193198
65.1553475128937
65.14596254397722
65.13668062350408
90.5200113356581
90.38610481800833
90.25285219003366
90.12025300049014
89.98830638517826
89.85701103237497
89.72636513376847
89.5963663221676
89.46701159937554
89.33829726197364
89.21021884187694
89.08277109494954
88.95594808178541
88.82974334826852
88.70484296979424
88.580049086243
88.4553611467679
88.33077861239194
88.20630096645738
88.08192773078693
87.95765849162458
87.83349294425624
67.5293599288425
67.5293599288425
67.5293599288425
67.5293599288425
67.5293599288425
67.5293599288425
67.5293599288425
67.5293599288425
67.5293599288425
67.5293599288425
65.2138098642554
65.2038454045363
65.19397851879515
65.18420934813386
65.174538003307
65.16496456821865
65.1554891020369
65.14611164050613
65.13683219675842
90.3488509156774
90.21494623204612
90.08177044730347
89.94932554137084
89.81761476843279
89.68664274168209
89.55641555248708
89.42694091721476
89.29822833654401
89.17028923554612
89.04313701895353
88.91678691581343
88.79125545005725
88.66655951415068
88.54328242307801
88.42013366109771
88.29711447867909
88.17422606356179
88.05146950001634
87.92884570690207
87.8063553394209
87.68399862147486
67.5293599288425
67.5293599288425
67.5293599288425
67.5293599288425
67.5293599288425
67.5293599288425
67.5293599288425
67.5293599288425
67.5293599288425
67.5293599288425
65.21380891438378
65.20369286808153
65.19369607672405
65.18381803120324
65.17405831679847
65.16441660062875
65.15489262415883
65.14548619860473
65.13619720211953
90.04488809984333
89.91095518995567
89.7778171868883
89.64546761499909
89.5138954708039
89.38308506111153
89.25301577889073
89.12366184655927
88.99499208858377
88.86696985706473
88.73955335856617
88.61269684993562
88.486353300077
88.36047857187614
88.23581282840539
88.1112362888878
87.98674659367202
87.86234166461504
87.73801986078641
87.6137802128265
87.48962279204818
87.36554933734497
67.5293599288425
67.5293599288425
67.5293599288425
67.5293599288425
67.5293599288425
67.5293599288425
67.5293599288425
67.5293599288425
67.5293599288425
67.5293599288425
65.21391819529883
65.20438243904131
65.1948843498194
65.18542529451014
65.17600635745248
65.16662838582705
65.157292016482
65.14799769221194
65.13874567164923
89.46811062287888
89.33442077946256
89.20225762473572
89.07163847601569
88.94259205984775
88.81515865654873
88.68939028676648
88.5653508224675
88.44311578448412
88.3227713614188
88.20441172970808
88.08813295858876
87.9740213469223
87.86213613358811
87.75232526914095
87.64275617742938
87.53342655763069
87.42433291945594
87.31546999997148
87.20682988883253
87.09840065361533
86.9901640075943
67.5293599288425
67.5293599288425
67.5293599288425
67.5293599288425
67.5293599288425
67.5293599288425
67.5293599288425
67.5293599288425
67.5293599288425
67.5293599288425
65.1994019299107
65.18757669023051
65.17610553603966
65.1649849818251
65.15421232483827
65.14378547956663
65.13370288059724
65.1239634241064
65.11456643252158
88.59562533741583
88.46035734633705
88.32380643115393
88.18595202235325
88.04676035155451
87.90618482586267
87.7641666104992
87.62063585958073
87.47551447698933
87.32872211819365
87.18018879752697
87.02988034369695
86.87784440219178
86.72427660719657
86.57120242065382
86.41813279627485
86.2651171736814
86.11220968614728
85.95947129915935
85.80697302951017
85.6548010185964
85.5030651618931
67.5293599288425
67.5293599288425
67.5293599288425
67.5293599288425
67.5293599288425
67.5293599288425
67.5293599288425
67.5293599288425
67.5293599288425
67.5293599288425
64.04145325373179
64.03314083560953
64.02471881375854
64.01619638904502
64.00758040743948
63.99887596803414
63.99008677816815
63.98121536632597
63.97226321023176
88.59024504987885
88.45497248111162
88.31840949254759
88.1805341615582
88.04131091139466
87.90069059116169
87.75861006245786
87.61499151362557
87.46974153344024
87.32274990977413
87.17388792635212
87.02301117070226
86.87000172430591
86.71487990680708
86.55988283171608
86.40479878152233
86.24963870017088
86.09440028947184
85.93905994278587
85.78355869969178
85.62776919977848
85.47141530189336
85.3133880625396
65.21993795591531
65.17016007288218
65.16496799712792
65.16693148898442
65.16627200922505
65.16643195015068
65.16676965929781
65.16149586028615
64.04119231103532
64.03252350896715
64.02392375579424
64.01529706796829
64.00662572956664
63.997901213293
63.98911964944051
63.980279220878344
63.97137908779198
63.96241889479595
88.5850173675726
88.44974087711982
88.31316766560003
88.17527439023445
88.03602366348657
87.89536381505525
87.75322745978106
87.60952889732036
87.46415949977492
87.31697931720541
87.1678011321954
87.0163680515939
86.86238478724164
86.70568870537696
86.54874889993793
86.39163747676423
86.2343329110788
86.07678346192728
85.91889213397012
85.76049395355035
85.60131204973972
85.44083743178975
85.278272053236
65.23932692277552
65.15253058863556
65.15699528227807
65.15640846030118
65.15645519048778
65.15629935536303
65.15721645896645
65.14986827037774
64.03265134218067
64.02369472747911
64.01483841199527
64.00602253738283
63.99720912641551
63.98837928145956
63.979522098627804
63.97063111377392
63.961702532473836
63.952734353741555
88.57994274019663
88.44466304547008
88.3080815884759
88.17017349196492
88.03089958675096
87.89020580431911
87.74802071666741
87.60425109386486
87.45877374858199
87.31142018828749
87.16194717798882
87.00998571832696
86.85504488574246
86.69676428574624
86.53788185357747
86.37876026664873
86.21935849187011
86.05958875670878
85.89929942035037
85.7382555134186
85.57610765065645
85.41236164568424
85.2463765066044
65.2547779552411
65.13607101026712
65.14883898162995
65.14606494736543
65.14671577969722
65.14628993853853
65.14770472700161
65.13856876120428
64.02403241891093
64.01487047480771
64.0058247052895
63.99684957119251
63.9879109273807
63.97898562277883
63.97005876639789
63.96112074502101
63.952165574590644
63.943189974416434
88.57502149731151
88.4397393928655
88.30315180662534
88.16523215336167
88.02593955304118
87.88521774263229
87.74299159678732
87.59916098305189
87.45358935980512
87.30608189438576
87.15634394188052
87.00389947349741
86.84803758640263
86.68816449636904
86.52734541453475