# vtk DataFile Version 2.0
Niestacjonarne zagadnienie cieplne - ogrzewanie wody w garnku stalowym
ASCII
DATASET UNSTRUCTURED_GRID
POINTS 1353 float
0.0 0.0 0.0
0.0 3.846153846153846E-4 0.0
0.0 7.692307692307692E-4 0.0
0.0 0.0011538461538461537 0.0
0.0 0.0015384615384615385 0.0
0.0 0.0019230769230769232 0.0
0.0 0.0023076923076923075 0.0
0.0 0.002692307692307692 0.0
0.0 0.003076923076923077 0.0
0.0 0.0034615384615384616 0.0
0.0 0.0038461538461538464 0.0
0.0 0.004230769230769231 0.0
0.0 0.004615384615384615 0.0
0.0 0.005 0.0
0.0 0.005111111111111111 0.0
0.0 0.005222222222222223 0.0
0.0 0.005333333333333333 0.0
0.0 0.0054444444444444445 0.0
0.0 0.005555555555555556 0.0
0.0 0.005666666666666667 0.0
0.0 0.0057777777777777775 0.0
0.0 0.005888888888888889 0.0
0.0 0.006 0.0
0.0 0.01711111111111111 0.0
0.0 0.028222222222222225 0.0
0.0 0.03933333333333333 0.0
0.0 0.050444444444444445 0.0
0.0 0.06155555555555556 0.0
0.0 0.07266666666666667 0.0
0.0 0.08377777777777778 0.0
0.0 0.0948888888888889 0.0
0.0 0.10600000000000001 0.0
0.0 0.10611111111111113 0.0
0.0 0.10622222222222223 0.0
0.0 0.10633333333333335 0.0
0.0 0.10644444444444445 0.0
0.0 0.10655555555555557 0.0
0.0 0.10666666666666667 0.0
0.0 0.10677777777777779 0.0
0.0 0.1068888888888889 0.0
0.0 0.10700000000000001 0.0
1.1111111111111112E-4 0.0 0.0
1.1111111111111112E-4 3.846153846153846E-4 0.0
1.1111111111111112E-4 7.692307692307692E-4 0.0
1.1111111111111112E-4 0.0011538461538461537 0.0
1.1111111111111112E-4 0.0015384615384615385 0.0
1.1111111111111112E-4 0.0019230769230769232 0.0
1.1111111111111112E-4 0.0023076923076923075 0.0
1.1111111111111112E-4 0.002692307692307692 0.0
1.1111111111111112E-4 0.003076923076923077 0.0
1.1111111111111112E-4 0.0034615384615384616 0.0
1.1111111111111112E-4 0.0038461538461538464 0.0
1.1111111111111112E-4 0.004230769230769231 0.0
1.1111111111111112E-4 0.004615384615384615 0.0
1.1111111111111112E-4 0.005 0.0
1.1111111111111112E-4 0.005111111111111111 0.0
1.1111111111111112E-4 0.005222222222222223 0.0
1.1111111111111112E-4 0.005333333333333333 0.0
1.1111111111111112E-4 0.0054444444444444445 0.0
1.1111111111111112E-4 0.005555555555555556 0.0
1.1111111111111112E-4 0.005666666666666667 0.0
1.1111111111111112E-4 0.0057777777777777775 0.0
1.1111111111111112E-4 0.005888888888888889 0.0
1.1111111111111112E-4 0.006 0.0
1.1111111111111112E-4 0.01711111111111111 0.0
1.1111111111111112E-4 0.028222222222222225 0.0
1.1111111111111112E-4 0.03933333333333333 0.0
1.1111111111111112E-4 0.050444444444444445 0.0
1.1111111111111112E-4 0.06155555555555556 0.0
1.1111111111111112E-4 0.07266666666666667 0.0
1.1111111111111112E-4 0.08377777777777778 0.0
1.1111111111111112E-4 0.0948888888888889 0.0
1.1111111111111112E-4 0.10600000000000001 0.0
1.1111111111111112E-4 0.10611111111111113 0.0
1.1111111111111112E-4 0.10622222222222223 0.0
1.1111111111111112E-4 0.10633333333333335 0.0
1.1111111111111112E-4 0.10644444444444445 0.0
1.1111111111111112E-4 0.10655555555555557 0.0
1.1111111111111112E-4 0.10666666666666667 0.0
1.1111111111111112E-4 0.10677777777777779 0.0
1.1111111111111112E-4 0.1068888888888889 0.0
1.1111111111111112E-4 0.10700000000000001 0.0
2.2222222222222223E-4 0.0 0.0
2.2222222222222223E-4 3.846153846153846E-4 0.0
2.2222222222222223E-4 7.692307692307692E-4 0.0
2.2222222222222223E-4 0.0011538461538461537 0.0
2.2222222222222223E-4 0.0015384615384615385 0.0
2.2222222222222223E-4 0.0019230769230769232 0.0
2.2222222222222223E-4 0.0023076923076923075 0.0
2.2222222222222223E-4 0.002692307692307692 0.0
2.2222222222222223E-4 0.003076923076923077 0.0
2.2222222222222223E-4 0.0034615384615384616 0.0
2.2222222222222223E-4 0.0038461538461538464 0.0
2.2222222222222223E-4 0.004230769230769231 0.0
2.2222222222222223E-4 0.004615384615384615 0.0
2.2222222222222223E-4 0.005 0.0
2.2222222222222223E-4 0.005111111111111111 0.0
2.2222222222222223E-4 0.005222222222222223 0.0
2.2222222222222223E-4 0.005333333333333333 0.0
2.2222222222222223E-4 0.0054444444444444445 0.0
2.2222222222222223E-4 0.005555555555555556 0.0
2.2222222222222223E-4 0.005666666666666667 0.0
2.2222222222222223E-4 0.0057777777777777775 0.0
2.2222222222222223E-4 0.005888888888888889 0.0
2.2222222222222223E-4 0.006 0.0
2.2222222222222223E-4 0.01711111111111111 0.0
2.2222222222222223E-4 0.028222222222222225 0.0
2.2222222222222223E-4 0.03933333333333333 0.0
2.2222222222222223E-4 0.050444444444444445 0.0
2.2222222222222223E-4 0.06155555555555556 0.0
2.2222222222222223E-4 0.07266666666666667 0.0
2.2222222222222223E-4 0.08377777777777778 0.0
2.2222222222222223E-4 0.0948888888888889 0.0
2.2222222222222223E-4 0.10600000000000001 0.0
2.2222222222222223E-4 0.10611111111111113 0.0
2.2222222222222223E-4 0.10622222222222223 0.0
2.2222222222222223E-4 0.10633333333333335 0.0
2.2222222222222223E-4 0.10644444444444445 0.0
2.2222222222222223E-4 0.10655555555555557 0.0
2.2222222222222223E-4 0.10666666666666667 0.0
2.2222222222222223E-4 0.10677777777777779 0.0
2.2222222222222223E-4 0.1068888888888889 0.0
2.2222222222222223E-4 0.10700000000000001 0.0
3.333333333333334E-4 0.0 0.0
3.333333333333334E-4 3.846153846153846E-4 0.0
3.333333333333334E-4 7.692307692307692E-4 0.0
3.333333333333334E-4 0.0011538461538461537 0.0
3.333333333333334E-4 0.0015384615384615385 0.0
3.333333333333334E-4 0.0019230769230769232 0.0
3.333333333333334E-4 0.0023076923076923075 0.0
3.333333333333334E-4 0.002692307692307692 0.0
3.333333333333334E-4 0.003076923076923077 0.0
3.333333333333334E-4 0.0034615384615384616 0.0
3.333333333333334E-4 0.0038461538461538464 0.0
3.333333333333334E-4 0.004230769230769231 0.0
3.333333333333334E-4 0.004615384615384615 0.0
3.333333333333334E-4 0.005 0.0
3.333333333333334E-4 0.005111111111111111 0.0
3.333333333333334E-4 0.005222222222222223 0.0
3.333333333333334E-4 0.005333333333333333 0.0
3.333333333333334E-4 0.0054444444444444445 0.0
3.333333333333334E-4 0.005555555555555556 0.0
3.333333333333334E-4 0.005666666666666667 0.0
3.333333333333334E-4 0.0057777777777777775 0.0
3.333333333333334E-4 0.005888888888888889 0.0
3.333333333333334E-4 0.006 0.0
3.333333333333334E-4 0.01711111111111111 0.0
3.333333333333334E-4 0.028222222222222225 0.0
3.333333333333334E-4 0.03933333333333333 0.0
3.333333333333334E-4 0.050444444444444445 0.0
3.333333333333334E-4 0.06155555555555556 0.0
3.333333333333334E-4 0.07266666666666667 0.0
3.333333333333334E-4 0.08377777777777778 0.0
3.333333333333334E-4 0.0948888888888889 0.0
3.333333333333334E-4 0.10600000000000001 0.0
3.333333333333334E-4 0.10611111111111113 0.0
3.333333333333334E-4 0.10622222222222223 0.0
3.333333333333334E-4 0.10633333333333335 0.0
3.333333333333334E-4 0.10644444444444445 0.0
3.333333333333334E-4 0.10655555555555557 0.0
3.333333333333334E-4 0.10666666666666667 0.0
3.333333333333334E-4 0.10677777777777779 0.0
3.333333333333334E-4 0.1068888888888889 0.0
3.333333333333334E-4 0.10700000000000001 0.0
4.4444444444444447E-4 0.0 0.0
4.4444444444444447E-4 3.846153846153846E-4 0.0
4.4444444444444447E-4 7.692307692307692E-4 0.0
4.4444444444444447E-4 0.0011538461538461537 0.0
4.4444444444444447E-4 0.0015384615384615385 0.0
4.4444444444444447E-4 0.0019230769230769232 0.0
4.4444444444444447E-4 0.0023076923076923075 0.0
4.4444444444444447E-4 0.002692307692307692 0.0
4.4444444444444447E-4 0.003076923076923077 0.0
4.4444444444444447E-4 0.0034615384615384616 0.0
4.4444444444444447E-4 0.0038461538461538464 0.0
4.4444444444444447E-4 0.004230769230769231 0.0
4.4444444444444447E-4 0.004615384615384615 0.0
4.4444444444444447E-4 0.005 0.0
4.4444444444444447E-4 0.005111111111111111 0.0
4.4444444444444447E-4 0.005222222222222223 0.0
4.4444444444444447E-4 0.005333333333333333 0.0
4.4444444444444447E-4 0.0054444444444444445 0.0
4.4444444444444447E-4 0.005555555555555556 0.0
4.4444444444444447E-4 0.005666666666666667 0.0
4.4444444444444447E-4 0.0057777777777777775 0.0
4.4444444444444447E-4 0.005888888888888889 0.0
4.4444444444444447E-4 0.006 0.0
4.4444444444444447E-4 0.01711111111111111 0.0
4.4444444444444447E-4 0.028222222222222225 0.0
4.4444444444444447E-4 0.03933333333333333 0.0
4.4444444444444447E-4 0.050444444444444445 0.0
4.4444444444444447E-4 0.06155555555555556 0.0
4.4444444444444447E-4 0.07266666666666667 0.0
4.4444444444444447E-4 0.08377777777777778 0.0
4.4444444444444447E-4 0.0948888888888889 0.0
4.4444444444444447E-4 0.10600000000000001 0.0
4.4444444444444447E-4 0.10611111111111113 0.0
4.4444444444444447E-4 0.10622222222222223 0.0
4.4444444444444447E-4 0.10633333333333335 0.0
4.4444444444444447E-4 0.10644444444444445 0.0
4.4444444444444447E-4 0.10655555555555557 0.0
4.4444444444444447E-4 0.10666666666666667 0.0
4.4444444444444447E-4 0.10677777777777779 0.0
4.4444444444444447E-4 0.1068888888888889 0.0
4.4444444444444447E-4 0.10700000000000001 0.0
5.555555555555556E-4 0.0 0.0
5.555555555555556E-4 3.846153846153846E-4 0.0
5.555555555555556E-4 7.692307692307692E-4 0.0
5.555555555555556E-4 0.0011538461538461537 0.0
5.555555555555556E-4 0.0015384615384615385 0.0
5.555555555555556E-4 0.0019230769230769232 0.0
5.555555555555556E-4 0.0023076923076923075 0.0
5.555555555555556E-4 0.002692307692307692 0.0
5.555555555555556E-4 0.003076923076923077 0.0
5.555555555555556E-4 0.0034615384615384616 0.0
5.555555555555556E-4 0.0038461538461538464 0.0
5.555555555555556E-4 0.004230769230769231 0.0
5.555555555555556E-4 0.004615384615384615 0.0
5.555555555555556E-4 0.005 0.0
5.555555555555556E-4 0.005111111111111111 0.0
5.555555555555556E-4 0.005222222222222223 0.0
5.555555555555556E-4 0.005333333333333333 0.0
5.555555555555556E-4 0.0054444444444444445 0.0
5.555555555555556E-4 0.005555555555555556 0.0
5.555555555555556E-4 0.005666666666666667 0.0
5.555555555555556E-4 0.0057777777777777775 0.0
5.555555555555556E-4 0.005888888888888889 0.0
5.555555555555556E-4 0.006 0.0
5.555555555555556E-4 0.01711111111111111 0.0
5.555555555555556E-4 0.028222222222222225 0.0
5.555555555555556E-4 0.03933333333333333 0.0
5.555555555555556E-4 0.050444444444444445 0.0
5.555555555555556E-4 0.06155555555555556 0.0
[...]
POINT_DATA 1353
SCALARS Temperatura float 1
LOOKUP_TABLE default
83.81528846944491
83.67906257775238
83.54157975565292
83.40280313088104
83.26268825376187
83.12117470322144
82.97818017952721
82.83359017583813
82.687239808061
82.53887358950398
82.38808768722582
82.23410398454863
82.07578657793928
81.90787812506261
81.7320814691769
81.56250912384344
81.39430949369387
81.22650858543332
81.05841625568688
80.88949381522647
80.7192591209112
80.54725654343517
80.3730463362838
60.476761363579335
60.26959565975595
60.30522095007572
60.29646250086163
60.2987435307544
60.29764481529651
60.30016657338532
60.28753815531315
59.28819787987375
59.27958510684371
59.27109195499607
59.26270140780065
59.25439744793667
59.24616574803554
59.23799417201522
59.229873093463084
59.221795568243806
59.213757410754674
83.81916101899922
83.68292917860357
83.54543945574544
83.40665641798896
83.26653567702792
83.12501707943011
82.98201866201823
82.83742681862331
82.6910773021765
82.54272071038037
82.3919443037437
82.23804745577203
82.07962495370323
81.91316387454088
81.74345941252018
81.57453794758787
81.4067680954607
81.23924422270527
81.07137727566106
80.9026572711852
80.73261429159055
80.56079652509813
80.3867638478213
60.483160295354416
60.27838022671211
60.313386336230536
60.30478973693177
60.3070266068676
60.305946830267516
60.30843498807632
60.29592689331601
59.29621504706007
59.28760924804947
59.27912300296402
59.27073885582135
59.26244043445677
59.25421315984355
59.246044741586424
59.237925474193744
59.22984838207185
59.22180927148382
83.82318270682102
83.68694795287159
83.5494540872051
83.41066826964506
83.27054661517809
83.12902966910862
82.98603663130669
82.84145598569597
82.69512786783585
82.54681047026128
82.39610919046406
82.2423612684726
82.08419790451494
81.91945710212732
81.75259250579498
81.58576699104613
81.41912830814029
81.25245189893775
81.0853056714101
80.91725228719548
80.74785125750388
80.57665932376426
80.40323329899526
60.48579820089846
60.28826535155871
60.32139719316262
60.3132904774197
60.31539367778367
60.314371280372754
60.31675747946653
60.30461578762215
59.304197359822965
59.29561650668922
59.28715490952411
59.2787937540517
59.27051559207324
59.26230510480336
59.254149570190584
59.24603908016306
59.23796659342826
59.229927909907815
83.82735457134893
83.69111880107432
83.55362354743426
83.41483853413804
83.27472086077506
83.13321218816056
82.99023359272138
82.84567703806937
82.69938956171201
82.55114217463183
82.40057015687404
82.24705515366853
82.08943227414616
81.92633161544126
81.76162472425851
81.5967102595056
81.43162654399549
81.26623236772772
81.10024456579316
80.9332973428288
80.76498248676592
80.59486240362169
80.42248235946582
60.48466388053357
60.29925563948901
60.32925190308344
60.321965297138775
60.32384456465433
60.32291831964411
60.32513383413268
60.31360538498249
59.312143618395396
59.30360725570877
59.29518945700159
59.28686897786942
59.27862652208071
59.27044558473324
59.26231282835544
59.25421812054584
59.24615440132455
59.23811751563162
83.83167712772675
83.69544168692076
83.55794763736205
83.41916695477845
83.27905806871455
83.13756414636103
82.99460879060418
82.85008869609732
82.70386003356415
82.55571186062585
82.40531620526704
82.25212409194586
82.09521468801454
81.93368532422323
81.77091146768264
81.60785444621983
81.44448900215554
81.28069098936034
81.11623387406057
80.95080401062357
80.78401651133153
80.61542868763743
80.44455724388517
60.47973904270835
60.31135865729652
60.33694777791588
60.33081513458026
60.3323789562907
60.3315881899015
60.33356368397795
60.3228965732574
59.320051764562756
59.311582327211205
59.30323000825123
59.29496975991128
59.286779601112514
59.2786415212179
59.27054159529217
59.262469645208
59.25441878357767
59.24638503290772
83.83615057718504
83.69991652184032
83.56242608095397
83.42365316774583
83.28355775856433
83.14208486744118
82.99916119051895
82.85468920182589
82.70853622227722
82.56051346053903
82.41033622436227
82.25754575740274
82.1014547438343
81.94146394451187
81.78056044234344
81.61937293837217
81.45785214589084
81.29588428319038
81.13327709362858
80.96975230748647
80.80493987976483
80.6383769588021
80.46952365597495
60.47099803472462
60.32458501201634
60.34448103571358
60.33984129925298
60.34099640631523
60.34038122372066
60.34204649790706
60.33249061062257
59.32791877570572
59.31954344029393
59.31128226348666
59.303104488351494
59.294984603444505
59.28690313222786
59.27884602202011
59.27080356595148
59.262769440625185
59.25474008019566
83.8407749057217
83.70454312438375
83.5670585228664
83.42829670491624
83.28821932022883
83.14677350283529
83.00388949997492
82.85947640078192
82.71341431367463
82.56553965655588
82.41561694903086
82.26328973310426
82.10808072886032
81.94961877899497
81.79058307508866
81.63130555147326
81.47173936987168
81.31179258709683
81.15131121222599
80.99005950334647
80.82768840430074
80.66370469634161
80.49746864647368
60.4584073218625
60.33894849960571
60.35184675728969
60.349045484774614
60.3496963282837
60.349297849331
60.35058156810349
60.3423891739609
59.33574048862881
59.32749413116653
59.31935578815426
59.31128612843778
59.3032556572497
59.295244381652466
59.28723945762266
59.279232597630184
59.27121864469758
59.26319477181539
83.84554993454677
83.70932120837828
83.57184452288557
83.4330969971356
83.29304202141948
83.15162904657579
83.0087922032138
82.86444779721734
82.71848987896293
82.57078218791467
82.42114286452758
82.26932272106818
82.11503244214096
81.95809717781468
81.80094239116623
81.64361539762459
81.48609068326762
81.3283134147024
81.1701845482795
81.01153802698234
80.85209663466739
80.69135132225182
80.52850417935828
60.441924501474865
60.35446638101492
60.35903880762524
60.3584297919248
60.35847798741331
60.35833859866798
60.359167987385554
60.352594439257835
59.34351130560888
59.33544199909372
59.32746707148603
59.319534806403155
59.311612312898035
59.303683308862105
59.2957384030984
59.287772033146936
59.27978093628521
59.27176339247433
83.85047534861414
83.71425038207006
83.57678355199333
83.43805337739481
83.29802501615943
83.15665035311928
83.01386759876223
82.86960062073845
82.72375804192377
82.57623207039205
82.42689684432845
82.27561093247698
82.12225631528841
81.96684148650452
81.81157242186225
81.65621729493063
81.50078446246779
81.34526947157426
81.1896470814102
81.03385720308506
80.8777717590538
80.72111430954438
80.56277411363226
60.421496393492596
60.37115990883112
60.36604968893412
60.36799677067632
60.36734048605951
60.36750412096413
60.36780461099863
60.363109218104185
59.35122369319264
59.34340242317063
59.3356492320716
59.32788014619364
59.320080139455904
59.3122419010931
59.30436212478072
59.29643926699234
59.288472620290136
59.28046188783897
83.85555071480078
83.7193301513878
83.58187499062805
83.44316508405319
83.30316735405486
83.1618361570581
83.019113838904
82.87493190403188
82.72921364367983
82.58187986100074
82.43286091341653
82.28212106024155
82.12970264905879
81.97579059679161
81.82239033542398
81.66899678272564
81.51565799080716
81.3624267879367
81.20936294572836
81.05653641353602
80.9040323945373
80.75195996679099
62.58316493699306
62.58316493699306
62.58316493699306
62.58316493699306
62.58316493699306
62.58316493699306
62.58316493699306
62.58316493699306
62.58316493699306
62.58316493699306
59.351459775165566
59.34395419911277
59.33636157810959
59.3286899158048
59.32094517480505
59.31313179931013
59.30525302193651
59.29731104778101
59.28930716520155
84.69419022433284
84.55951017310785
84.42634354220787
84.2947072679174
84.16462944112142
84.03614944950016
83.90931816392124
83.78419805639021
83.66086302170051
83.53939745756067
83.41989372261355
83.30244632642064
83.18714074660421
83.07403659752437
82.963003857975
82.85221275032352
82.74166110882616
82.63134555534945
82.52126090877658
82.41139930636402
82.30174882851192
82.19229116894302
62.58316493699306
62.58316493699306
62.58316493699306
62.58316493699306
62.58316493699306
62.58316493699306
62.58316493699306
62.58316493699306
62.58316493699306
62.58316493699306
60.39743401329409
60.38674064858649
60.37638028238248
60.36634984195693
60.356646938969135
60.34726972712974
60.33821681824526
60.32948723160874
60.321080363421224
85.24971855222114
85.11480108629475
84.98068549825214
84.8473654670032
84.71483024818885
84.58306451572582
84.45204814164734
84.32175594262847
84.19215745240778
84.06321683837172
83.93489319975546
83.80714169588293
83.67991608749398
83.55317280205821
83.42765326878586
83.30222581068756
83.17688810041197
83.0516380989167
82.9264742131626
82.80139553152308
82.67640219305908
82.55149601381727
62.58316493699306
62.58316493699306
62.58316493699306
62.58316493699306
62.58316493699306
62.58316493699306
62.58316493699306
62.58316493699306
62.58316493699306
62.58316493699306
60.41047818362642
60.40185630103744
60.39328133985339
60.38475451193355
60.37627677990486
60.36784889621066
60.359471426315665
60.35114476280141
60.34286913393591
85.54220132211945
85.40731148108334
85.2731609746305
85.13975174506626
85.00708698116476
84.87517120106406
84.74401036903181
84.61361203966102
84.4839855150258
84.35514198451217
84.22709458466075
84.0998582584887
83.97344925477812
83.847884229676
83.72374987587028
83.59974621081834
83.47587446625263
83.35213580913205
83.22853130035051
83.10506183249225
82.98172803151455
82.85853008924089
62.58316493699306
62.58316493699306
62.58316493699306
62.58316493699306
62.58316493699306
62.58316493699306
62.58316493699306
62.58316493699306
62.58316493699306
62.58316493699306
60.41037717398063
60.401230146119026
60.39220381764556
60.3832977313098
60.374511513531694
60.36584486359194
60.35729754714075
60.34886939221325
60.34056028678659
85.70690843708144
85.57201679935193
85.43779223904879
85.30423432152891
85.17134220896679
85.03911462654779
84.9075498144294
84.77664546666728
84.64639866031982
84.51680578210492
84.3878624686926
84.25956359249625
84.13190333596013
84.00487536584319
83.87916635154994
83.75356671376039
83.62807591324118
83.50269342327314
83.37741874025781
83.25225139996995
83.12719100352827
83.00223726199177
62.58316493699306
62.58316493699306
62.58316493699306
62.58316493699306
62.58316493699306
62.58316493699306
62.58316493699306
62.58316493699306
62.58316493699306
62.58316493699306
60.410378026432774
60.40136817686079
60.39245942158922
60.38365188413734
60.374945661020945
60.366340824769274
60.35783742575981
60.34943549335875
60.34113503662686
85.79487283168099
85.6599799964214
85.52571580763401
85.39208048684566
85.2590743248348
85.12669769389038
84.99495106537255
84.8638350324623
84.73335033750212
84.60349790225855
84.47427885711268
84.34569456089525
84.21774659993456
84.09043676308107
83.96445444818708
83.83858347262546
83.7128240132699
83.58717624472864
83.46164033667141
83.33621644962946
83.21090472816805
83.08570528902428
62.58316493699306
62.58316493699306
62.58316493699306
62.58316493699306
62.58316493699306
62.58316493699306
62.58316493699306
62.58316493699306
62.58316493699306
62.58316493699306
60.410390475990226
60.40134467312155
60.39240519137319
60.383571963405295
60.374844930275586
60.3662240405872
60.357709249962966
60.34930052071397
60.34099782163232
85.83788529040527
85.70299275323714
85.56871168247278
85.43504214601165
85.30198417022373
85.16953773556811
85.0377027702638
84.90647914195925
84.77586664745898
84.64586500084792
84.51647382100057
84.3876926206878
84.2595208004259
84.13195764794365
84.00570702706112
83.87956483710398
83.753531013982
83.62760549352834
83.50178821219008
83.37607910815682
83.25047812324263
83.12498520621192
62.58316493699306
62.58316493699306
62.58316493699306
62.58316493699306
62.58316493699306
62.58316493699306
62.58316493699306
62.58316493699306
62.58316493699306
62.58316493699306
60.41038414860463
60.40134794483875
60.39241664198714
60.38359023447578
60.374868713869446
60.36625206913002
60.35774028677862
60.34933335099931
60.341031243704805
85.85072018825034
85.71582740537775
85.5815403236684
85.44785905933844
85.31478372451484
85.18231442976112
85.05045128775075
84.91919441815281
84.78854395375244
84.6585000476988
84.52906288145972
84.40023267245388
84.27200967985667
84.14439420818724
84.01809148757555
83.89189730849102
83.76581171184982
83.63983473857749
83.51396642929738
83.3882068238001
83.2625559601349
83.13701387297759
62.58316493699306
62.58316493699306
62.58316493699306
62.58316493699306
62.58316493699306
62.58316493699306
62.58316493699306
62.58316493699306
62.58316493699306
62.58316493699306
60.41038701056369
60.401347672545114
60.39241370806709
60.38358508748563
60.374861782631015
60.366243766672234
60.35773101403077
60.349323500324935
60.34102120233429
85.83788529040507
85.70299275323691
85.5687116824725
85.43504214601128
85.30198417022321
85.1695377355674
85.03770277026294
84.90647914195829
84.7758666474579
84.64586500084665
84.51647382099905
84.38769262068601
84.25952080042384
84.1319576479413
84.00570702705849
83.87956483710109
83.75353101397889
83.62760549352501
83.50178821218657
83.37607910815318
83.25047812323893
83.12498520620815
62.58316493699306
62.58316493699306
62.58316493699306
62.58316493699306
62.58316493699306
62.58316493699306
62.58316493699306
62.58316493699306
62.58316493699306
62.58316493699306
60.41038414859876
60.40134794483288
60.39241664198126
60.38359023446989
60.374868713863535
60.36625206912407
60.357740286772646
60.349333350993334
60.341031243698836
85.79487283168477
85.65997999642518
85.52571580763782
85.39208048684951
85.25907432483874
85.1266976938944
84.99495106537658
84.86383503246631
84.73335033750608
84.60349790226255
84.47427885711677
84.34569456089946
84.21774659993885
84.09043676308553
83.96445444819172
83.83858347263022
83.7128240132748
83.58717624473373
83.46164033667657
83.33621644963466
83.21090472817323
83.08570528902945
62.58316493699306
62.58316493699306
62.58316493699306
62.58316493699306
62.58316493699306
62.58316493699306
62.58316493699306
62.58316493699306
62.58316493699306
62.58316493699306
60.410390475971994
60.40134467310323
60.392405191354776
60.38357196338678
60.37484493025697
60.36622404056852
60.35770924994423
60.34930052069521
60.340997821613556
85.70690843708744
85.57201679935795
85.4377922390549
85.30423432153506
85.17134220897292
85.03911462655378
84.9075498144354
84.77664546667324
84.64639866032573
84.51680578211065
84.38786246869807
84.25956359250142
84.131903335965
84.00487536584774
83.87916635155422
83.75356671376446
83.62807591324511
83.50269342327697
83.37741874026155
83.25225139997362
83.1271910035319
83.00223726199539
62.58316493699306
62.58316493699306
62.58316493699306
62.58316493699306
62.58316493699306
62.58316493699306
62.58316493699306
62.58316493699306
62.58316493699306
62.58316493699306
60.410378026431346
60.40136817685937
60.39245942158783
60.38365188413598
60.374945661019616
60.366340824768
60.35783742575856
60.34943549335748
60.341135036625595
85.54220132213355
85.40731148109744
85.27316097464457
85.13975174508029
85.00708698117874
84.87517120107802
84.74401036904571
84.61361203967489
84.48398551503968
84.35514198452611
84.22709458467476
84.09985825850276
83.97344925479221
83.84788422969011
83.72374987588438
83.59974621083245
83.47587446626666
83.35213580914592
83.2285313003643
83.10506183250594
82.98172803152806
82.85853008925424
62.58316493699306
62.58316493699306
62.58316493699306
62.58316493699306
62.58316493699306
62.58316493699306
62.58316493699306
62.58316493699306
62.58316493699306
62.58316493699306
60.4103771739777
60.40123014611608
60.39220381764259
60.383297731306826
60.37451151352871
60.365844863588926
60.35729754713774
60.34886939221026
60.34056028678361
85.2497185522389
85.11480108631253
84.98068549827
84.84736546702116
84.71483024820691
84.58306451574398
84.45204814166561
84.32175594264683
84.19215745242623
84.0632168383902
83.93489319977401
83.80714169590156
83.67991608751275
83.55317280207716
83.42765326880499
83.30222581070686
83.17688810043146
83.0516380989364
82.92647421318243
82.80139553154301
82.67640219307908
82.5514960138373
62.58316493699306
62.58316493699306
62.58316493699306
62.58316493699306
62.58316493699306
62.58316493699306
62.58316493699306
62.58316493699306
62.58316493699306
62.58316493699306
60.410478183614515
60.40185630102546
60.393281339841344
60.38475451192144
60.37627677989274
60.36784889619853
60.35947142630356
60.351144762789346
60.342869133923855
84.69419022433716
84.55951017311219
84.4263435422122
84.29470726792174
84.16462944112575
84.03614944950445
83.90931816392545
83.78419805639436
83.66086302170461
83.53939745756477
83.4198937226177
83.30244632642479
83.18714074660836
83.0740365975285
82.96300385797909
82.85221275032758
82.74166110883017
82.63134555535332
82.52126090878043
82.4113993063678
82.30174882851558
82.19229116894661
62.58316493699306
62.58316493699306
62.58316493699306
62.58316493699306
62.58316493699306
62.58316493699306
62.58316493699306
62.58316493699306
62.58316493699306
62.58316493699306
60.39743401329516
60.386740648587555
60.37638028238353
60.366349841958
60.35664693897017
60.34726972713072
60.33821681824619
60.329487231609626
60.32108036342209
83.85555071480108
83.71933015138808
83.5818749906283
83.44316508405342
83.30316735405506
83.16183615705832
83.01911383890435
82.87493190403232
82.72921364368038
82.58187986100135
82.43286091341719
82.28212106024228
82.12970264905955
81.97579059679242
81.82239033542486
81.6689967827266
81.51565799080821
81.36242678793792
81.20936294572961
81.05653641353732
80.90403239453865
80.75195996679238
62.58316493699306
62.58316493699306
62.58316493699306
62.58316493699306
62.58316493699306
62.58316493699306
62.58316493699306
62.58316493699306
62.58316493699306
62.58316493699306
59.351459775156485
59.34395419910377
59.33636157810066
59.328689915795906
59.320945174796194
59.31313179930133
59.30525302192778
59.29731104777232
59.28930716519287
83.85047534861452
83.71425038207038
83.57678355199357
83.43805337739501
83.29802501615961
83.15665035311953
83.01386759876257
82.86960062073895
82.72375804192436
82.5762320703927
82.42689684432915
82.27561093247787
82.12225631528928
81.9668414865054
81.81157242186326
81.65621729493171
81.50078446246891
81.34526947157543
81.18964708141142
81.03385720308636
80.8777717590551
80.72111430954577
80.56277411363365
60.421496393499666
60.371159908856654
60.36604968894346
60.367996770685224
60.36734048609501
60.36750412097234
60.36780461099737
60.363109218105684
59.351223693183506
59.34340242316151
59.335649232062536
59.32788014618464
59.32008013944695
59.3122419010842
59.30436212477184
59.29643926698348
59.288472620281276
59.2804618878301
83.84554993454725
83.70932120837861
83.57184452288581
83.4330969971358
83.29304202141972
83.15162904657602
83.00879220321418
82.8644477972179
82.7184898789635
82.57078218791544
82.42114286452818
82.26932272106919
82.11503244214198
81.9580971778156
81.80094239116731
81.64361539762567
81.48609068326871
81.32831341470357
81.17018454828072
81.01153802698356
80.85209663466865
80.69135132225314
80.52850417935963
60.44192450148211
60.35446638104054
60.359038807634604
60.35842979193376
60.35847798744903
60.35833859867607
60.35916798738435
60.352594439259335
59.34351130559967
59.33544199908453
59.32746707147689
59.31953480639408
59.31161231288901
59.30368330885313
59.29573840308946
59.28777203313798
59.279780936276225
59.27176339246533
83.84077490572217
83.70454312438412
83.56705852286665
83.42829670491642
83.28821932022905
83.14677350283543
83.00388949997526
82.85947640078254
82.71341431367532
82.56553965655664
82.41561694903162
82.2632897331053
82.1080807288614
81.94961877899603
81.79058307508978
81.63130555147436
81.47173936987278
81.311792587098
81.15131121222716
80.9900595033477
80.82768840430197
80.66370469634288
80.49746864647491
60.45840732186992
60.33894849963148
60.35184675729911
60.349045484783744
60.34969632831958
60.34929784933912
60.350581568102264
60.34238917396238
59.335740488619585
59.3274941311573
59.3193557881451
59.31128612842865
59.30325565724064
59.29524438164346
59.28723945761366
59.27923259762115
59.27121864468858
59.263194771806354
83.83615057718544
83.69991652184068