# vtk DataFile Version 2.0
Niestacjonarne zagadnienie cieplne - ogrzewanie wody w garnku stalowym
ASCII
DATASET UNSTRUCTURED_GRID
POINTS 1353 float
0.0 0.0 0.0
0.0 3.846153846153846E-4 0.0
0.0 7.692307692307692E-4 0.0
0.0 0.0011538461538461537 0.0
0.0 0.0015384615384615385 0.0
0.0 0.0019230769230769232 0.0
0.0 0.0023076923076923075 0.0
0.0 0.002692307692307692 0.0
0.0 0.003076923076923077 0.0
0.0 0.0034615384615384616 0.0
0.0 0.0038461538461538464 0.0
0.0 0.004230769230769231 0.0
0.0 0.004615384615384615 0.0
0.0 0.005 0.0
0.0 0.005111111111111111 0.0
0.0 0.005222222222222223 0.0
0.0 0.005333333333333333 0.0
0.0 0.0054444444444444445 0.0
0.0 0.005555555555555556 0.0
0.0 0.005666666666666667 0.0
0.0 0.0057777777777777775 0.0
0.0 0.005888888888888889 0.0
0.0 0.006 0.0
0.0 0.01711111111111111 0.0
0.0 0.028222222222222225 0.0
0.0 0.03933333333333333 0.0
0.0 0.050444444444444445 0.0
0.0 0.06155555555555556 0.0
0.0 0.07266666666666667 0.0
0.0 0.08377777777777778 0.0
0.0 0.0948888888888889 0.0
0.0 0.10600000000000001 0.0
0.0 0.10611111111111113 0.0
0.0 0.10622222222222223 0.0
0.0 0.10633333333333335 0.0
0.0 0.10644444444444445 0.0
0.0 0.10655555555555557 0.0
0.0 0.10666666666666667 0.0
0.0 0.10677777777777779 0.0
0.0 0.1068888888888889 0.0
0.0 0.10700000000000001 0.0
1.1111111111111112E-4 0.0 0.0
1.1111111111111112E-4 3.846153846153846E-4 0.0
1.1111111111111112E-4 7.692307692307692E-4 0.0
1.1111111111111112E-4 0.0011538461538461537 0.0
1.1111111111111112E-4 0.0015384615384615385 0.0
1.1111111111111112E-4 0.0019230769230769232 0.0
1.1111111111111112E-4 0.0023076923076923075 0.0
1.1111111111111112E-4 0.002692307692307692 0.0
1.1111111111111112E-4 0.003076923076923077 0.0
1.1111111111111112E-4 0.0034615384615384616 0.0
1.1111111111111112E-4 0.0038461538461538464 0.0
1.1111111111111112E-4 0.004230769230769231 0.0
1.1111111111111112E-4 0.004615384615384615 0.0
1.1111111111111112E-4 0.005 0.0
1.1111111111111112E-4 0.005111111111111111 0.0
1.1111111111111112E-4 0.005222222222222223 0.0
1.1111111111111112E-4 0.005333333333333333 0.0
1.1111111111111112E-4 0.0054444444444444445 0.0
1.1111111111111112E-4 0.005555555555555556 0.0
1.1111111111111112E-4 0.005666666666666667 0.0
1.1111111111111112E-4 0.0057777777777777775 0.0
1.1111111111111112E-4 0.005888888888888889 0.0
1.1111111111111112E-4 0.006 0.0
1.1111111111111112E-4 0.01711111111111111 0.0
1.1111111111111112E-4 0.028222222222222225 0.0
1.1111111111111112E-4 0.03933333333333333 0.0
1.1111111111111112E-4 0.050444444444444445 0.0
1.1111111111111112E-4 0.06155555555555556 0.0
1.1111111111111112E-4 0.07266666666666667 0.0
1.1111111111111112E-4 0.08377777777777778 0.0
1.1111111111111112E-4 0.0948888888888889 0.0
1.1111111111111112E-4 0.10600000000000001 0.0
1.1111111111111112E-4 0.10611111111111113 0.0
1.1111111111111112E-4 0.10622222222222223 0.0
1.1111111111111112E-4 0.10633333333333335 0.0
1.1111111111111112E-4 0.10644444444444445 0.0
1.1111111111111112E-4 0.10655555555555557 0.0
1.1111111111111112E-4 0.10666666666666667 0.0
1.1111111111111112E-4 0.10677777777777779 0.0
1.1111111111111112E-4 0.1068888888888889 0.0
1.1111111111111112E-4 0.10700000000000001 0.0
2.2222222222222223E-4 0.0 0.0
2.2222222222222223E-4 3.846153846153846E-4 0.0
2.2222222222222223E-4 7.692307692307692E-4 0.0
2.2222222222222223E-4 0.0011538461538461537 0.0
2.2222222222222223E-4 0.0015384615384615385 0.0
2.2222222222222223E-4 0.0019230769230769232 0.0
2.2222222222222223E-4 0.0023076923076923075 0.0
2.2222222222222223E-4 0.002692307692307692 0.0
2.2222222222222223E-4 0.003076923076923077 0.0
2.2222222222222223E-4 0.0034615384615384616 0.0
2.2222222222222223E-4 0.0038461538461538464 0.0
2.2222222222222223E-4 0.004230769230769231 0.0
2.2222222222222223E-4 0.004615384615384615 0.0
2.2222222222222223E-4 0.005 0.0
2.2222222222222223E-4 0.005111111111111111 0.0
2.2222222222222223E-4 0.005222222222222223 0.0
2.2222222222222223E-4 0.005333333333333333 0.0
2.2222222222222223E-4 0.0054444444444444445 0.0
2.2222222222222223E-4 0.005555555555555556 0.0
2.2222222222222223E-4 0.005666666666666667 0.0
2.2222222222222223E-4 0.0057777777777777775 0.0
2.2222222222222223E-4 0.005888888888888889 0.0
2.2222222222222223E-4 0.006 0.0
2.2222222222222223E-4 0.01711111111111111 0.0
2.2222222222222223E-4 0.028222222222222225 0.0
2.2222222222222223E-4 0.03933333333333333 0.0
2.2222222222222223E-4 0.050444444444444445 0.0
2.2222222222222223E-4 0.06155555555555556 0.0
2.2222222222222223E-4 0.07266666666666667 0.0
2.2222222222222223E-4 0.08377777777777778 0.0
2.2222222222222223E-4 0.0948888888888889 0.0
2.2222222222222223E-4 0.10600000000000001 0.0
2.2222222222222223E-4 0.10611111111111113 0.0
2.2222222222222223E-4 0.10622222222222223 0.0
2.2222222222222223E-4 0.10633333333333335 0.0
2.2222222222222223E-4 0.10644444444444445 0.0
2.2222222222222223E-4 0.10655555555555557 0.0
2.2222222222222223E-4 0.10666666666666667 0.0
2.2222222222222223E-4 0.10677777777777779 0.0
2.2222222222222223E-4 0.1068888888888889 0.0
2.2222222222222223E-4 0.10700000000000001 0.0
3.333333333333334E-4 0.0 0.0
3.333333333333334E-4 3.846153846153846E-4 0.0
3.333333333333334E-4 7.692307692307692E-4 0.0
3.333333333333334E-4 0.0011538461538461537 0.0
3.333333333333334E-4 0.0015384615384615385 0.0
3.333333333333334E-4 0.0019230769230769232 0.0
3.333333333333334E-4 0.0023076923076923075 0.0
3.333333333333334E-4 0.002692307692307692 0.0
3.333333333333334E-4 0.003076923076923077 0.0
3.333333333333334E-4 0.0034615384615384616 0.0
3.333333333333334E-4 0.0038461538461538464 0.0
3.333333333333334E-4 0.004230769230769231 0.0
3.333333333333334E-4 0.004615384615384615 0.0
3.333333333333334E-4 0.005 0.0
3.333333333333334E-4 0.005111111111111111 0.0
3.333333333333334E-4 0.005222222222222223 0.0
3.333333333333334E-4 0.005333333333333333 0.0
3.333333333333334E-4 0.0054444444444444445 0.0
3.333333333333334E-4 0.005555555555555556 0.0
3.333333333333334E-4 0.005666666666666667 0.0
3.333333333333334E-4 0.0057777777777777775 0.0
3.333333333333334E-4 0.005888888888888889 0.0
3.333333333333334E-4 0.006 0.0
3.333333333333334E-4 0.01711111111111111 0.0
3.333333333333334E-4 0.028222222222222225 0.0
3.333333333333334E-4 0.03933333333333333 0.0
3.333333333333334E-4 0.050444444444444445 0.0
3.333333333333334E-4 0.06155555555555556 0.0
3.333333333333334E-4 0.07266666666666667 0.0
3.333333333333334E-4 0.08377777777777778 0.0
3.333333333333334E-4 0.0948888888888889 0.0
3.333333333333334E-4 0.10600000000000001 0.0
3.333333333333334E-4 0.10611111111111113 0.0
3.333333333333334E-4 0.10622222222222223 0.0
3.333333333333334E-4 0.10633333333333335 0.0
3.333333333333334E-4 0.10644444444444445 0.0
3.333333333333334E-4 0.10655555555555557 0.0
3.333333333333334E-4 0.10666666666666667 0.0
3.333333333333334E-4 0.10677777777777779 0.0
3.333333333333334E-4 0.1068888888888889 0.0
3.333333333333334E-4 0.10700000000000001 0.0
4.4444444444444447E-4 0.0 0.0
4.4444444444444447E-4 3.846153846153846E-4 0.0
4.4444444444444447E-4 7.692307692307692E-4 0.0
4.4444444444444447E-4 0.0011538461538461537 0.0
4.4444444444444447E-4 0.0015384615384615385 0.0
4.4444444444444447E-4 0.0019230769230769232 0.0
4.4444444444444447E-4 0.0023076923076923075 0.0
4.4444444444444447E-4 0.002692307692307692 0.0
4.4444444444444447E-4 0.003076923076923077 0.0
4.4444444444444447E-4 0.0034615384615384616 0.0
4.4444444444444447E-4 0.0038461538461538464 0.0
4.4444444444444447E-4 0.004230769230769231 0.0
4.4444444444444447E-4 0.004615384615384615 0.0
4.4444444444444447E-4 0.005 0.0
4.4444444444444447E-4 0.005111111111111111 0.0
4.4444444444444447E-4 0.005222222222222223 0.0
4.4444444444444447E-4 0.005333333333333333 0.0
4.4444444444444447E-4 0.0054444444444444445 0.0
4.4444444444444447E-4 0.005555555555555556 0.0
4.4444444444444447E-4 0.005666666666666667 0.0
4.4444444444444447E-4 0.0057777777777777775 0.0
4.4444444444444447E-4 0.005888888888888889 0.0
4.4444444444444447E-4 0.006 0.0
4.4444444444444447E-4 0.01711111111111111 0.0
4.4444444444444447E-4 0.028222222222222225 0.0
4.4444444444444447E-4 0.03933333333333333 0.0
4.4444444444444447E-4 0.050444444444444445 0.0
4.4444444444444447E-4 0.06155555555555556 0.0
4.4444444444444447E-4 0.07266666666666667 0.0
4.4444444444444447E-4 0.08377777777777778 0.0
4.4444444444444447E-4 0.0948888888888889 0.0
4.4444444444444447E-4 0.10600000000000001 0.0
4.4444444444444447E-4 0.10611111111111113 0.0
4.4444444444444447E-4 0.10622222222222223 0.0
4.4444444444444447E-4 0.10633333333333335 0.0
4.4444444444444447E-4 0.10644444444444445 0.0
4.4444444444444447E-4 0.10655555555555557 0.0
4.4444444444444447E-4 0.10666666666666667 0.0
4.4444444444444447E-4 0.10677777777777779 0.0
4.4444444444444447E-4 0.1068888888888889 0.0
4.4444444444444447E-4 0.10700000000000001 0.0
5.555555555555556E-4 0.0 0.0
5.555555555555556E-4 3.846153846153846E-4 0.0
5.555555555555556E-4 7.692307692307692E-4 0.0
5.555555555555556E-4 0.0011538461538461537 0.0
5.555555555555556E-4 0.0015384615384615385 0.0
5.555555555555556E-4 0.0019230769230769232 0.0
5.555555555555556E-4 0.0023076923076923075 0.0
5.555555555555556E-4 0.002692307692307692 0.0
5.555555555555556E-4 0.003076923076923077 0.0
5.555555555555556E-4 0.0034615384615384616 0.0
5.555555555555556E-4 0.0038461538461538464 0.0
5.555555555555556E-4 0.004230769230769231 0.0
5.555555555555556E-4 0.004615384615384615 0.0
5.555555555555556E-4 0.005 0.0
5.555555555555556E-4 0.005111111111111111 0.0
5.555555555555556E-4 0.005222222222222223 0.0
5.555555555555556E-4 0.005333333333333333 0.0
5.555555555555556E-4 0.0054444444444444445 0.0
5.555555555555556E-4 0.005555555555555556 0.0
5.555555555555556E-4 0.005666666666666667 0.0
5.555555555555556E-4 0.0057777777777777775 0.0
5.555555555555556E-4 0.005888888888888889 0.0
5.555555555555556E-4 0.006 0.0
5.555555555555556E-4 0.01711111111111111 0.0
5.555555555555556E-4 0.028222222222222225 0.0
5.555555555555556E-4 0.03933333333333333 0.0
5.555555555555556E-4 0.050444444444444445 0.0
5.555555555555556E-4 0.06155555555555556 0.0
[...]
POINT_DATA 1353
SCALARS Temperatura float 1
LOOKUP_TABLE default
141.6105957404988
141.4859777042819
141.35949951159492
141.2311176704237
141.10077612425295
140.96839655223482
140.83386990557332
140.6970408033857
140.55767997590414
140.41542084223815
140.26967586043227
140.11925444130316
139.96250348752807
139.79022421599424
139.60370412659282
139.42973420197987
139.25913770143075
139.09025689765414
138.9220024605815
138.75359824351656
138.58439612156445
138.41381345186312
138.2413051561741
118.91765584938952
118.72274655625142
118.75601229018038
118.74775867361699
118.75008598711393
118.74829270965148
118.753853975888
118.72407786588838
116.41755426475983
116.39705114148671
116.37679143947445
116.35672496272299
116.33680451794395
116.31698792408925
116.29723947035303
116.27753084189806
116.25784162177872
116.23815951285903
141.6179251078644
141.49330190409384
141.3668177360374
141.23843057482313
141.10808447237523
140.97570148351866
140.8411730514552
140.70434524806024
140.56498948711848
140.42274989344475
140.2770195711895
140.12675377558935
139.96976992863765
139.80023249465464
139.62543315399597
139.45264959409127
139.28280341476633
139.1143676819086
138.94644812667934
138.77832487367155
138.6093757123157
138.43902921948262
138.26674469846537
118.93605685686333
118.74344855198234
118.77611631955837
118.76801978960484
118.77030171583189
118.7685371327908
118.77402573010532
118.74452245416984
116.43715706173478
116.41667557613857
116.39643724685854
116.37639059893648
116.35648740677382
116.33668475749667
116.31694649165479
116.29724406443735
116.27755696727985
116.25787287923534
141.6254368424468
141.5008116860805
141.37432483983477
141.24593693514754
141.11559267576686
140.9832151059443
140.8486974274559
140.71188889165498
140.57256775578958
140.43038965513486
140.28477651764317
140.13474453943363
139.9781573687589
139.81175327854945
139.64218783081785
139.47317982308107
139.3052168209819
139.13808491067795
138.9711914330106
138.80395882274175
138.6358283813538
138.46625690050791
138.29471365488376
118.95079845549307
118.76517880717854
118.79603683218636
118.78841571048878
118.7905602471288
118.78888264504384
118.79415068580067
118.76547875716355
116.45652974748836
116.43612301974473
116.41595841590217
116.39598050812833
116.37613794098847
116.35638565102104
116.33668622422232
116.31701052674933
116.29733785850152
116.27765587953479
141.63313194183445
141.50850690842373
141.3820206726031
141.25363654121412
141.1233004431222
140.99093701772867
140.85644229101703
140.71967083825274
140.58041160651706
140.4383398499482
140.29292512772747
140.14324943489947
139.9875318061794
139.82397314819312
139.65813594074376
139.4923455737833
139.32686660845482
139.16163730954935
138.99634823695456
138.83056184965886
138.66379231888595
138.49552770856016
138.32524387071788
118.961868470212
118.78794212389818
118.81577215864921
118.80894702225723
118.81086135680475
118.80932950482443
118.8142283005183
118.78694813723745
116.47566894801629
116.45539467702815
116.43536025272678
116.41550317508701
116.39576671497832
116.37610236268561
116.3564709166212
116.3368425904107
116.31719662813684
116.29752081934897
141.64101085206528
141.51638746319554
141.38990495506698
141.26152903742718
141.13120729399785
140.9988665192219
140.8644065376068
140.7276891744068
140.58851745206363
140.44659455397323
140.30144740448785
140.15226510403582
139.99768591730273
139.83671575334446
139.67399866960423
139.51113383309254
139.34824544497093
139.18528953162104
139.0220558704219
138.8582065510746
138.6933135699654
138.52688515971118
138.35838821136403
118.9692470596111
118.8117463831547
118.83531953503041
118.8296146858282
118.83120466341542
118.8298781332987
118.83425766233418
118.80893284599064
116.49456888713635
116.4744931891279
116.4546527630629
116.43497404050808
116.4153924912466
116.39585523722555
116.37632137250014
116.35676097567604
116.33715378848039
116.3174881139079
141.64907367736797
141.52445316141566
141.3979772991316
141.26961392279185
141.13931256112153
141.00700264833475
140.87258865888754
140.73594126844125
140.5968806760322
140.45514438779256
140.31032629170443
140.16175691230245
140.00846117875273
139.8499064004117
139.6900328031225
139.52994631142707
139.36969972058057
139.20924508085804
139.04841839369533
138.8869404267172
138.72442216452296
138.56037280937528
138.39422106055463
118.9729065644235
118.83660259240747
118.8546750875123
118.85042004252679
118.85158962480828
118.85052912147745
118.85423746623741
118.83143610892311
116.51322107819564
116.49342388842257
116.473852863914
116.45441782340737
116.43504400584052
116.4156742970124
116.39626742423846
116.37679482387591
116.3572378691268
116.33758605534484
141.65732027937102
141.5327036930825
141.40623720658843
141.27789055561433
141.14761539972557
141.0153442022245
140.88098677286294
140.74442390881947
140.60549551129625
140.46397809224854
140.31954156732087
140.17167647731802
140.019739093632
139.8634895623401
139.7063237315163
139.54894859263095
139.3913881290947
139.23360127855528
139.07546272076934
138.91674613855344
138.75709846082768
138.59601466399369
138.43283965679686
118.97281112416421
118.86252499791883
118.87383379849882
118.87136482516108
118.87201553195995
118.87128324197471
118.87416597508285
118.85446226598616
116.53161381074634
116.5121975478454
116.49298885079868
116.47387265244168
116.45476272478702
116.43560054648505
116.4163483010958
116.39698152807408
116.37748498029175
116.3578502959585
141.66575032819372
141.54113861610756
141.41468406483378
141.2863581590462
141.15611479975408
141.02388976019998
140.8895986790309
140.75313338670725
140.61435525939117
140.47308302683615
140.3290694649412
140.1819713819883
140.0314265965151
139.87740929249992
139.72287721753358
139.5681801232478
139.41334116219215
139.25834322787384
139.10311226546307
138.9474954346324
138.79121973076874
138.63377681645304
138.47436712108248
118.96891583291747
118.88953132347773
118.89278943769509
118.89245117933127
118.89248149818768
118.8921414684944
118.89404095484089
118.87801700590512
116.54973129142155
116.53083706884236
116.51210945132898
116.49339739277877
116.47460595103651
116.45568693530494
116.43661249998145
116.41736608228234
116.39793793287046
116.3783229042297
141.67436333172037
141.54975735635955
141.4233171443852
141.29501582692774
141.16480959954464
141.0326377114756
140.89842191713237
140.7620655970716
140.6234525587032
140.48244548430552
140.33888368843392
140.19258936981225
140.0434457414448
139.89160556982574
139.7396547029727
139.58760663775752
139.43550129390837
139.28336050538837
139.1311789681589
138.97891036034213
138.82643535323166
138.67348115012916
138.51895893823598
118.96116496109651
118.91764326256775
118.91153442391546
118.91368170455087
118.9129864397243
118.9131050094591
118.91385956256485
118.90210777393548
116.56755214283505
116.54939121473107
116.53131019894467
116.51307860494848
116.49464859133064
116.47599800598259
116.45711666946937
116.43799970036648
116.41864477627698
116.39905088606626
141.68315865459724
141.55855921191826
141.43213559872902
141.3038625299301
141.17369850068187
141.04158628596429
140.9074538283845
140.77121615881728
140.6327796431366
140.49205108306452
140.3489566504355
140.20347975072997
140.0557273645198
139.90601515637712
139.75659291827512
139.60715120206453
139.4577549871115
139.30847302239317
139.15937964444637
139.0105578250816
138.86210421349108
138.71413785998777
122.92538474468263
122.92538474468263
122.92538474468263
122.92538474468263
122.92538474468263
122.92538474468263
122.92538474468263
122.92538474468263
122.92538474468263
122.92538474468263
116.56809151880385
116.5507426912028
116.53303160775437
116.51498087783133
116.49660724083587
116.47792313047572
116.45893757085308
116.4396567123064
116.42008415340919
142.93470733044697
142.81210754240274
142.69118304508467
142.57195542327224
142.45446052273218
142.33874862106634
142.22488461614478
142.11294805911103
142.0030326819872
141.8952447308945
141.78969874105962
141.68650824965533
141.58576875319557
141.48753528527968
141.39140908623716
141.29552623727335
141.19988292471908
141.1044744021759
141.00929449038156
140.91433474587222
140.8195830926001
140.72502146281175
122.92538474468263
122.92538474468263
122.92538474468263
122.92538474468263
122.92538474468263
122.92538474468263
122.92538474468263
122.92538474468263
122.92538474468263
122.92538474468263
118.98012313318831
118.9556212048266
118.93170953040037
118.90838000128518
118.8856263934518
118.86344394215314
118.84182909716715
118.82077937579604
118.8002932742232
143.74946943814592
143.62656328536008
143.50437396539783
143.38289327167806
143.26210729858718
143.1419962414256
143.022534127772
142.90368852452602
142.78542031250285
142.66768371282495
142.55042693438432
142.43359412654
142.31712938985143
142.2009822640213
142.08587873172573
141.97083224649828
141.85584008693672
141.7408997369811
141.62600901933277
141.51116631803762
141.3963709456485
141.2816237769654
122.92538474468263
122.92538474468263
122.92538474468263
122.92538474468263
122.92538474468263
122.92538474468263
122.92538474468263
122.92538474468263
122.92538474468263
122.92538474468263
119.01112645887704
118.99135556864287
118.97151869905076
118.9516189531339
118.93165877837211
118.9116400829779
118.89156430327401
118.8714324444277
118.85124510514453
144.182005614072
144.05913442267783
143.93687525326007
143.81523050702972
143.69420417074966
143.57380192219932
143.45403127624007
143.33490176106287
143.21642510166498
143.09861536272783
142.98148895265925
142.86506430396417
142.7493610221711
142.6343986464503
142.5207226624334
142.4071485799493
142.293677859316
142.18031192101222
142.0670521111179
141.95389964276714
141.84085549869496
141.72792026207256
122.92538474468263
122.92538474468263
122.92538474468263
122.92538474468263
122.92538474468263
122.92538474468263
122.92538474468263
122.92538474468263
122.92538474468263
122.92538474468263
119.0109245418999
118.98995575532528
118.96909004632644
118.94832632500358
118.92766371587315
118.90710152585253
118.886639225535
118.8662764377674
118.8460129306765
144.4254412771574
144.30256783371385
144.18020058075365
144.05833888110985
143.93698157520168
143.8161269379423
143.6957726181743
143.57591556276088
143.45655193066773
143.33767700897226
143.2192851563625
143.10136982338204
142.98392370593444
142.8669389961374
142.751095116646
142.63532545916507
142.51962934277964
142.40400609122847
142.28845504159358
142.17297555943887
142.05756706441488
141.94222907515422
122.92538474468263
122.92538474468263
122.92538474468263
122.92538474468263
122.92538474468263
122.92538474468263
122.92538474468263
122.92538474468263
122.92538474468263
122.92538474468263
119.01092658282225
118.99027075175871
118.96967306802873
118.94913386965486
118.92865342686213
118.90823195094946
118.88786959953788
118.8675664798062
118.84732265048282
144.55577594892958
144.43290086964197
144.3104752727157
144.18849936273654
144.06697342911824
143.94589786174308
143.82527317318767
143.70510002722415
143.5853792724944
143.46611197852803
143.34729946761237
143.22894332955207
143.11104540414271
142.9936077406601
142.8773176694434
142.7611034918528
142.6449654095432
142.5289036242713
142.412918335784
142.29700973796716
142.18117801216871
142.06542331531202
122.92538474468263
122.92538474468263
122.92538474468263
122.92538474468263
122.92538474468263
122.92538474468263
122.92538474468263
122.92538474468263
122.92538474468263
122.92538474468263
119.0109552252336
118.9902173691133
118.96954963933239
118.94895191091841
118.92842407987162
118.90796606068055
118.88757778483321
118.86725919988787
118.84701026889593
144.6195694599858
144.49669474542407
144.3742438889864
144.25221690099744
144.13061373683536
144.00943429134765
143.88867839083534
143.76834578258635
143.64843612213122
143.52894895886178
143.40988372168354
143.29123970823366
143.17301608189183
143.05521187392563
142.93853477559256
142.82192960747506
142.7053962763613
142.5889346881285
142.47254474825465
142.356226362829
142.2399794403704
142.12380389513862
122.92538474468263
122.92538474468263
122.92538474468263
122.92538474468263
122.92538474468263
122.92538474468263
122.92538474468263
122.92538474468263
122.92538474468263
122.92538474468263
119.0109408420144
118.99022488623223
118.9695758018382
118.94899361227682
118.92847833408676
118.90802997764614
118.88764854762594
118.86733404327698
118.84708645860997
144.6386219154131
144.5157468755155
144.39328721126807
144.27124299487753
144.14961429171774
144.02840116355213
143.90760367319456
143.78722189066715
143.6672559008322
143.54770581225716
143.4285717665645
143.30985394658924
143.1915525813
143.07366794884518
142.95691012541337
142.84022425794785
142.72361038349624
142.60706853954892
142.49059876382512
142.37420109381083
142.25787556589142
142.14162221373712
122.92538474468263
122.92538474468263
122.92538474468263
122.92538474468263
122.92538474468263
122.92538474468263
122.92538474468263
122.92538474468263
122.92538474468263
122.92538474468263
119.01094739237067
118.99022428560478
118.96956913344076
118.94898190191354
118.92846256077749
118.90801108311851
118.88762744511519
118.86731162588636
118.84706360739447
144.61956945998529
144.4966947454235
144.37424388898577
144.2522169009967
144.1306137368344
144.00943429134634
143.8886783908338
143.76834578258465
143.64843612212937
143.52894895885964
143.409883721681
143.29123970823065
143.17301608188836
143.05521187392168
142.9385347755881
142.82192960747017
142.70539627635605
142.58893468812283
142.47254474824865
142.3562263628228
142.2399794403641
142.1238038951322
122.92538474468263
122.92538474468263
122.92538474468263
122.92538474468263
122.92538474468263
122.92538474468263
122.92538474468263
122.92538474468263
122.92538474468263
122.92538474468263
119.01094084200278
118.99022488622059
118.96957580182655
118.94899361226514
118.92847833407504
118.90802997763431
118.88764854761406
118.86733404326509
118.84708645859807
144.55577594893612
144.4329008696485
144.31047527272227
144.18849936274322
144.06697342912503
143.94589786175004
143.82527317319466
143.70510002723114
143.58537927250134
143.46611197853503
143.3472994676195
143.2289433295594
143.11104540415025
142.99360774066795
142.87731766945151
142.7611034918611
142.6449654095517
142.52890362428008
142.41291833579294
142.29700973797617
142.18117801217767
142.06542331532094
122.92538474468263
122.92538474468263
122.92538474468263
122.92538474468263
122.92538474468263
122.92538474468263
122.92538474468263
122.92538474468263
122.92538474468263
122.92538474468263
119.01095522519775
118.99021736907727
118.96954963929618
118.94895191088197
118.92842407983497
118.90796606064377
118.88757778479633
118.86725919985093
118.84701026885898
144.42544127716792
144.3025678337244
144.18020058076434
144.0583388811206
143.93698157521234
143.81612693795276
143.69577261818472
143.57591556277126
143.456551930678
143.3376770089823
143.21928515637208
143.1013698233911
142.98392370594294
142.86693899614536
142.75109511665354
142.63532545917226
142.51962934278654
142.40400609123517
142.28845504160014
142.1729755594453
142.05756706442128
141.94222907516053
122.92538474468263
122.92538474468263
122.92538474468263
122.92538474468263
122.92538474468263
122.92538474468263
122.92538474468263
122.92538474468263
122.92538474468263
122.92538474468263
119.0109265828196
118.99027075175609
118.96967306802611
118.94913386965231
118.92865342685965
118.90823195094708
118.88786959953553
118.86756647980383
118.84732265048046
144.18200561409634
144.05913442270216
143.93687525328434
143.8152305070539
143.69420417077382
143.57380192222348
143.45403127626415
143.33490176108685
143.21642510168897
143.09861536275184
142.98148895268335
142.86506430398836
142.74936102219536
142.63439864647458
142.52072266245762
142.4071485799735
142.2936778593401
142.18031192103606
142.0670521111416
141.95389964279067
141.8408554987182
141.7279202620956
122.92538474468263
122.92538474468263
122.92538474468263
122.92538474468263
122.92538474468263
122.92538474468263
122.92538474468263
122.92538474468263
122.92538474468263
122.92538474468263
119.01092454189421
118.98995575531956
118.96909004632067
118.9483263249978
118.92766371586735
118.90710152584671
118.8866392255292
118.8662764377616
118.84601293067071
143.74946943817645
143.62656328539063
143.50437396542853
143.3828932717089
143.2621072986182
143.14199624145675
143.02253412780334
142.9036885245575
142.78542031253448
142.6676837128567
142.55042693441615
142.433594126572
142.31712938988366
142.20098226405383
142.0858787317586
141.97083224653147
141.8558400869702
141.74089973701493
141.6260090193668
141.51116631807184
141.39637094568283
141.2816237769997
122.92538474468263
122.92538474468263
122.92538474468263
122.92538474468263
122.92538474468263
122.92538474468263
122.92538474468263
122.92538474468263
122.92538474468263
122.92538474468263
119.01112645885345
118.99135556861911
118.97151869902687
118.95161895310991
118.93165877834808
118.91164008295385
118.89156430325001
118.87143244440378
118.85124510512063
142.93470733045467
142.81210754241044
142.6911830450924
142.57195542328
142.4544605227399
142.33874862107402
142.2248846161523
142.11294805911848
142.0030326819946
141.89524473090185
141.78969874106704
141.68650824966272
141.58576875320296
141.48753528528704
141.39140908624444
141.29552623728054
141.1998829247262
141.10447440218283
141.0092944903885
140.91433474587905
140.81958309260676
140.7250214628183
122.92538474468263
122.92538474468263
122.92538474468263
122.92538474468263
122.92538474468263
122.92538474468263
122.92538474468263
122.92538474468263
122.92538474468263
122.92538474468263
118.98012313319035
118.95562120482863
118.93170953040239
118.9083800012872
118.88562639345378
118.863443942155
118.84182909716891
118.8207793757977
118.80029327422481
141.68315865459806
141.5585592119191
141.4321355987298
141.30386252993077
141.17369850068252
141.0415862859649
140.90745382838531
140.77121615881825
140.63277964313772
140.49205108306586
140.34895665043686
140.20347975073147
140.05572736452143
139.90601515637877
139.75659291827685
139.6071512020664
139.4577549871135
139.30847302239542
139.1593796444487
139.01055782508405
138.8621042134936
138.71413785999036
122.92538474468263
122.92538474468263
122.92538474468263
122.92538474468263
122.92538474468263
122.92538474468263
122.92538474468263
122.92538474468263
122.92538474468263
122.92538474468263
116.56809151878605
116.55074269118512
116.53303160773685
116.51498087781387
116.49660724081849
116.47792313045844
116.45893757083594
116.4396567122893
116.42008415339207
141.67436333172145
141.54975735636046
141.42331714438586
141.29501582692836
141.1648095995453
141.03263771147627
140.89842191713322
140.7620655970726
140.62345255870446
140.48244548430696
140.33888368843517
140.19258936981393
140.04344574144662
139.89160556982762
139.73965470297463
139.58760663775954
139.43550129391048
139.28336050539056
139.1311789681612
138.97891036034449
138.82643535323407
138.6734811501317
138.5189589382386
118.96116496111061
118.91764326261807
118.91153442393451
118.91368170456875
118.91298643979431
118.91310500947526
118.91385956256252
118.90210777393852
116.56755214281722
116.54939121471317
116.5313101989269
116.51307860493084
116.49464859131302
116.47599800596504
116.45711666945189
116.43799970034911
116.41864477625964
116.39905088604897
141.66575032819492
141.5411386161085
141.41468406483446
141.28635815904676
141.15611479975476
141.02388976020063
140.8895986790318
140.7531333867084
140.61435525939254
140.47308302683766
140.32906946494248
140.18197138198997
140.031426596517
139.87740929250185
139.72287721753557
139.56818012324982
139.4133411621943
139.25834322787605
139.10311226546528
138.9474954346347
138.79121973077116
138.63377681645542
138.47436712108492
118.96891583293193
118.88953132352817
118.89278943771409
118.89245117934914
118.892481498258
118.89214146851069
118.89404095483857
118.87801700590795
116.54973129140362
116.53083706882438
116.51210945131106
116.49339739276095
116.47460595101879
116.45568693528719