# vtk DataFile Version 2.0
Niestacjonarne zagadnienie cieplne - ogrzewanie wody w garnku stalowym
ASCII
DATASET UNSTRUCTURED_GRID
POINTS 1353 float
0.0 0.0 0.0
0.0 3.846153846153846E-4 0.0
0.0 7.692307692307692E-4 0.0
0.0 0.0011538461538461537 0.0
0.0 0.0015384615384615385 0.0
0.0 0.0019230769230769232 0.0
0.0 0.0023076923076923075 0.0
0.0 0.002692307692307692 0.0
0.0 0.003076923076923077 0.0
0.0 0.0034615384615384616 0.0
0.0 0.0038461538461538464 0.0
0.0 0.004230769230769231 0.0
0.0 0.004615384615384615 0.0
0.0 0.005 0.0
0.0 0.005111111111111111 0.0
0.0 0.005222222222222223 0.0
0.0 0.005333333333333333 0.0
0.0 0.0054444444444444445 0.0
0.0 0.005555555555555556 0.0
0.0 0.005666666666666667 0.0
0.0 0.0057777777777777775 0.0
0.0 0.005888888888888889 0.0
0.0 0.006 0.0
0.0 0.01711111111111111 0.0
0.0 0.028222222222222225 0.0
0.0 0.03933333333333333 0.0
0.0 0.050444444444444445 0.0
0.0 0.06155555555555556 0.0
0.0 0.07266666666666667 0.0
0.0 0.08377777777777778 0.0
0.0 0.0948888888888889 0.0
0.0 0.10600000000000001 0.0
0.0 0.10611111111111113 0.0
0.0 0.10622222222222223 0.0
0.0 0.10633333333333335 0.0
0.0 0.10644444444444445 0.0
0.0 0.10655555555555557 0.0
0.0 0.10666666666666667 0.0
0.0 0.10677777777777779 0.0
0.0 0.1068888888888889 0.0
0.0 0.10700000000000001 0.0
1.1111111111111112E-4 0.0 0.0
1.1111111111111112E-4 3.846153846153846E-4 0.0
1.1111111111111112E-4 7.692307692307692E-4 0.0
1.1111111111111112E-4 0.0011538461538461537 0.0
1.1111111111111112E-4 0.0015384615384615385 0.0
1.1111111111111112E-4 0.0019230769230769232 0.0
1.1111111111111112E-4 0.0023076923076923075 0.0
1.1111111111111112E-4 0.002692307692307692 0.0
1.1111111111111112E-4 0.003076923076923077 0.0
1.1111111111111112E-4 0.0034615384615384616 0.0
1.1111111111111112E-4 0.0038461538461538464 0.0
1.1111111111111112E-4 0.004230769230769231 0.0
1.1111111111111112E-4 0.004615384615384615 0.0
1.1111111111111112E-4 0.005 0.0
1.1111111111111112E-4 0.005111111111111111 0.0
1.1111111111111112E-4 0.005222222222222223 0.0
1.1111111111111112E-4 0.005333333333333333 0.0
1.1111111111111112E-4 0.0054444444444444445 0.0
1.1111111111111112E-4 0.005555555555555556 0.0
1.1111111111111112E-4 0.005666666666666667 0.0
1.1111111111111112E-4 0.0057777777777777775 0.0
1.1111111111111112E-4 0.005888888888888889 0.0
1.1111111111111112E-4 0.006 0.0
1.1111111111111112E-4 0.01711111111111111 0.0
1.1111111111111112E-4 0.028222222222222225 0.0
1.1111111111111112E-4 0.03933333333333333 0.0
1.1111111111111112E-4 0.050444444444444445 0.0
1.1111111111111112E-4 0.06155555555555556 0.0
1.1111111111111112E-4 0.07266666666666667 0.0
1.1111111111111112E-4 0.08377777777777778 0.0
1.1111111111111112E-4 0.0948888888888889 0.0
1.1111111111111112E-4 0.10600000000000001 0.0
1.1111111111111112E-4 0.10611111111111113 0.0
1.1111111111111112E-4 0.10622222222222223 0.0
1.1111111111111112E-4 0.10633333333333335 0.0
1.1111111111111112E-4 0.10644444444444445 0.0
1.1111111111111112E-4 0.10655555555555557 0.0
1.1111111111111112E-4 0.10666666666666667 0.0
1.1111111111111112E-4 0.10677777777777779 0.0
1.1111111111111112E-4 0.1068888888888889 0.0
1.1111111111111112E-4 0.10700000000000001 0.0
2.2222222222222223E-4 0.0 0.0
2.2222222222222223E-4 3.846153846153846E-4 0.0
2.2222222222222223E-4 7.692307692307692E-4 0.0
2.2222222222222223E-4 0.0011538461538461537 0.0
2.2222222222222223E-4 0.0015384615384615385 0.0
2.2222222222222223E-4 0.0019230769230769232 0.0
2.2222222222222223E-4 0.0023076923076923075 0.0
2.2222222222222223E-4 0.002692307692307692 0.0
2.2222222222222223E-4 0.003076923076923077 0.0
2.2222222222222223E-4 0.0034615384615384616 0.0
2.2222222222222223E-4 0.0038461538461538464 0.0
2.2222222222222223E-4 0.004230769230769231 0.0
2.2222222222222223E-4 0.004615384615384615 0.0
2.2222222222222223E-4 0.005 0.0
2.2222222222222223E-4 0.005111111111111111 0.0
2.2222222222222223E-4 0.005222222222222223 0.0
2.2222222222222223E-4 0.005333333333333333 0.0
2.2222222222222223E-4 0.0054444444444444445 0.0
2.2222222222222223E-4 0.005555555555555556 0.0
2.2222222222222223E-4 0.005666666666666667 0.0
2.2222222222222223E-4 0.0057777777777777775 0.0
2.2222222222222223E-4 0.005888888888888889 0.0
2.2222222222222223E-4 0.006 0.0
2.2222222222222223E-4 0.01711111111111111 0.0
2.2222222222222223E-4 0.028222222222222225 0.0
2.2222222222222223E-4 0.03933333333333333 0.0
2.2222222222222223E-4 0.050444444444444445 0.0
2.2222222222222223E-4 0.06155555555555556 0.0
2.2222222222222223E-4 0.07266666666666667 0.0
2.2222222222222223E-4 0.08377777777777778 0.0
2.2222222222222223E-4 0.0948888888888889 0.0
2.2222222222222223E-4 0.10600000000000001 0.0
2.2222222222222223E-4 0.10611111111111113 0.0
2.2222222222222223E-4 0.10622222222222223 0.0
2.2222222222222223E-4 0.10633333333333335 0.0
2.2222222222222223E-4 0.10644444444444445 0.0
2.2222222222222223E-4 0.10655555555555557 0.0
2.2222222222222223E-4 0.10666666666666667 0.0
2.2222222222222223E-4 0.10677777777777779 0.0
2.2222222222222223E-4 0.1068888888888889 0.0
2.2222222222222223E-4 0.10700000000000001 0.0
3.333333333333334E-4 0.0 0.0
3.333333333333334E-4 3.846153846153846E-4 0.0
3.333333333333334E-4 7.692307692307692E-4 0.0
3.333333333333334E-4 0.0011538461538461537 0.0
3.333333333333334E-4 0.0015384615384615385 0.0
3.333333333333334E-4 0.0019230769230769232 0.0
3.333333333333334E-4 0.0023076923076923075 0.0
3.333333333333334E-4 0.002692307692307692 0.0
3.333333333333334E-4 0.003076923076923077 0.0
3.333333333333334E-4 0.0034615384615384616 0.0
3.333333333333334E-4 0.0038461538461538464 0.0
3.333333333333334E-4 0.004230769230769231 0.0
3.333333333333334E-4 0.004615384615384615 0.0
3.333333333333334E-4 0.005 0.0
3.333333333333334E-4 0.005111111111111111 0.0
3.333333333333334E-4 0.005222222222222223 0.0
3.333333333333334E-4 0.005333333333333333 0.0
3.333333333333334E-4 0.0054444444444444445 0.0
3.333333333333334E-4 0.005555555555555556 0.0
3.333333333333334E-4 0.005666666666666667 0.0
3.333333333333334E-4 0.0057777777777777775 0.0
3.333333333333334E-4 0.005888888888888889 0.0
3.333333333333334E-4 0.006 0.0
3.333333333333334E-4 0.01711111111111111 0.0
3.333333333333334E-4 0.028222222222222225 0.0
3.333333333333334E-4 0.03933333333333333 0.0
3.333333333333334E-4 0.050444444444444445 0.0
3.333333333333334E-4 0.06155555555555556 0.0
3.333333333333334E-4 0.07266666666666667 0.0
3.333333333333334E-4 0.08377777777777778 0.0
3.333333333333334E-4 0.0948888888888889 0.0
3.333333333333334E-4 0.10600000000000001 0.0
3.333333333333334E-4 0.10611111111111113 0.0
3.333333333333334E-4 0.10622222222222223 0.0
3.333333333333334E-4 0.10633333333333335 0.0
3.333333333333334E-4 0.10644444444444445 0.0
3.333333333333334E-4 0.10655555555555557 0.0
3.333333333333334E-4 0.10666666666666667 0.0
3.333333333333334E-4 0.10677777777777779 0.0
3.333333333333334E-4 0.1068888888888889 0.0
3.333333333333334E-4 0.10700000000000001 0.0
4.4444444444444447E-4 0.0 0.0
4.4444444444444447E-4 3.846153846153846E-4 0.0
4.4444444444444447E-4 7.692307692307692E-4 0.0
4.4444444444444447E-4 0.0011538461538461537 0.0
4.4444444444444447E-4 0.0015384615384615385 0.0
4.4444444444444447E-4 0.0019230769230769232 0.0
4.4444444444444447E-4 0.0023076923076923075 0.0
4.4444444444444447E-4 0.002692307692307692 0.0
4.4444444444444447E-4 0.003076923076923077 0.0
4.4444444444444447E-4 0.0034615384615384616 0.0
4.4444444444444447E-4 0.0038461538461538464 0.0
4.4444444444444447E-4 0.004230769230769231 0.0
4.4444444444444447E-4 0.004615384615384615 0.0
4.4444444444444447E-4 0.005 0.0
4.4444444444444447E-4 0.005111111111111111 0.0
4.4444444444444447E-4 0.005222222222222223 0.0
4.4444444444444447E-4 0.005333333333333333 0.0
4.4444444444444447E-4 0.0054444444444444445 0.0
4.4444444444444447E-4 0.005555555555555556 0.0
4.4444444444444447E-4 0.005666666666666667 0.0
4.4444444444444447E-4 0.0057777777777777775 0.0
4.4444444444444447E-4 0.005888888888888889 0.0
4.4444444444444447E-4 0.006 0.0
4.4444444444444447E-4 0.01711111111111111 0.0
4.4444444444444447E-4 0.028222222222222225 0.0
4.4444444444444447E-4 0.03933333333333333 0.0
4.4444444444444447E-4 0.050444444444444445 0.0
4.4444444444444447E-4 0.06155555555555556 0.0
4.4444444444444447E-4 0.07266666666666667 0.0
4.4444444444444447E-4 0.08377777777777778 0.0
4.4444444444444447E-4 0.0948888888888889 0.0
4.4444444444444447E-4 0.10600000000000001 0.0
4.4444444444444447E-4 0.10611111111111113 0.0
4.4444444444444447E-4 0.10622222222222223 0.0
4.4444444444444447E-4 0.10633333333333335 0.0
4.4444444444444447E-4 0.10644444444444445 0.0
4.4444444444444447E-4 0.10655555555555557 0.0
4.4444444444444447E-4 0.10666666666666667 0.0
4.4444444444444447E-4 0.10677777777777779 0.0
4.4444444444444447E-4 0.1068888888888889 0.0
4.4444444444444447E-4 0.10700000000000001 0.0
5.555555555555556E-4 0.0 0.0
5.555555555555556E-4 3.846153846153846E-4 0.0
5.555555555555556E-4 7.692307692307692E-4 0.0
5.555555555555556E-4 0.0011538461538461537 0.0
5.555555555555556E-4 0.0015384615384615385 0.0
5.555555555555556E-4 0.0019230769230769232 0.0
5.555555555555556E-4 0.0023076923076923075 0.0
5.555555555555556E-4 0.002692307692307692 0.0
5.555555555555556E-4 0.003076923076923077 0.0
5.555555555555556E-4 0.0034615384615384616 0.0
5.555555555555556E-4 0.0038461538461538464 0.0
5.555555555555556E-4 0.004230769230769231 0.0
5.555555555555556E-4 0.004615384615384615 0.0
5.555555555555556E-4 0.005 0.0
5.555555555555556E-4 0.005111111111111111 0.0
5.555555555555556E-4 0.005222222222222223 0.0
5.555555555555556E-4 0.005333333333333333 0.0
5.555555555555556E-4 0.0054444444444444445 0.0
5.555555555555556E-4 0.005555555555555556 0.0
5.555555555555556E-4 0.005666666666666667 0.0
5.555555555555556E-4 0.0057777777777777775 0.0
5.555555555555556E-4 0.005888888888888889 0.0
5.555555555555556E-4 0.006 0.0
5.555555555555556E-4 0.01711111111111111 0.0
5.555555555555556E-4 0.028222222222222225 0.0
5.555555555555556E-4 0.03933333333333333 0.0
5.555555555555556E-4 0.050444444444444445 0.0
5.555555555555556E-4 0.06155555555555556 0.0
[...]
POINT_DATA 1353
SCALARS Temperatura float 1
LOOKUP_TABLE default
78.93481519393976
78.7976090872244
78.65919698899013
78.51954258597021
78.3786024086191
78.2363175473932
78.09260796136097
77.94736259525331
77.80042200196799
77.65154007606401
77.50032849774414
77.3460439812042
77.18759429688002
77.02005493389471
76.84516380880721
76.67596281314195
76.50796558458025
76.34025586713585
76.17217722639883
76.00321102502568
75.83288913605693
75.66076665573347
75.48641273218426
55.54177205048824
55.33357136497686
55.36939590593559
55.360594826577746
55.36287194809292
55.36183188430513
55.3640969738341
55.35291657734265
54.463960234238854
54.456351531250775
54.44885199525768
54.44144741154019
54.43412439540437
54.426870971560746
54.4196769946739
54.41253441645852
54.40543743047881
54.39838253610323
78.93839583559111
78.8011837142092
78.66276463707257
78.52310372877555
78.38215757716642
78.23986753122074
78.0961538734361
77.95090640259482
77.80396630469028
77.65509316843311
77.50389064969305
77.34968718073658
77.19114319271738
77.02494189359999
76.85566766407113
76.68707233031144
76.5194778117868
76.35203094024654
76.18416843565424
76.01539803903246
75.84526269293094
75.6733206860446
75.49914038726924
55.54715747766466
55.341349575268595
55.376553143990726
55.367914316781295
55.37014738197889
55.36912543324906
55.37136022161465
55.360287269800395
54.47099906323071
54.463396096002604
54.455902245205756
54.44850292755993
54.4411844607353
54.433934658331644
54.42674324555481
54.41960210778268
54.41250541220124
54.40544965136862
78.94212280952084
78.80490769343801
78.66648434981452
78.52682048975781
78.38587319186638
78.24358447930541
78.09987574733096
77.95463879282603
77.80771897660897
77.6588831515713
77.50775220812673
77.35369049657086
77.19539403237486
77.0307936848473
76.86415715950774
76.69751594343701
76.53098909148714
76.36435114667019
76.19718357590614
76.0290608821669
75.8595525587776
75.68822378733643
75.51463877295915
55.5487732976203
55.350234448626864
55.383558300649085
55.37541057934931
55.37751028910833
55.37654321987285
55.37868606441265
55.3679402536999
54.478019526085674
54.470437298406516
54.462963951222704
54.455583762057636
54.44828214597887
54.44104629596378
54.433865575050724
54.42673169867105
54.41963877893807
54.41258330313721
78.9459971576173
78.80878092900365
78.67035602865363
78.53069272214331
78.38974905236384
78.24746811748874
78.10377310930708
77.95855914865642
77.81167817843851
77.6629092957374
77.5119017747492
77.35806256439696
77.200278797667
77.03721681430419
76.87260537167299
76.70776487170282
76.54271453271231
76.377306433523
76.21125962801189
76.0442143793134
75.87576902963255
75.70549226273845
75.53293520630702
55.54660839304308
55.360230573620925
55.390409762481625
55.383084188151436
55.384960494462796
55.38408538939406
55.386074316589756
55.37587600691794
54.48502060663823
54.47747544116948
54.470038598069955
54.46269231672938
54.45542046190397
54.44820923130949
54.44104747154659
54.4339267098761
54.42684104285936
54.41978699566666
78.95001940085972
78.81280339066456
78.67437948129187
78.53472017759458
78.39378482498311
78.25151797323043
78.10784523316666
77.96266624396047
77.81584166439511
77.66716780366401
77.51632894289921
77.36279822450004
77.20569204745222
77.04411546252923
76.88133681186062
76.71826356151116
76.55485783288303
76.39098870975029
76.22642828095863
76.06086494988347
75.89391746969045
75.72514729625122
75.55407534034877
55.54064460325797
55.37134549051017
55.39710484781551
55.39093607978513
55.39249769278603
55.39175216848774
55.39352465597217
55.38409530215526
54.49200056063413
54.48451120363238
54.477128987650595
54.46983296220149
54.46260473923018
54.455429252447615
54.44829485530576
54.44119303688001
54.43411803887509
54.42706653566477
78.95418974866995
78.81697499832913
78.67855444115747
78.53890250387478
78.3979800450695
78.25573339439755
78.11209112449174
77.96695839456505
77.82020650469804
77.67165288730153
77.52102310331095
77.36787619037045
77.21154913186956
77.05143706903411
76.89044659746543
76.72916611949314
76.56753772818954
76.40544208272225
76.24268454022085
76.078986912257
75.91398075577014
75.74720557898019
75.57812414583036
55.53085644500967
55.38358977251646
55.40363978246234
55.39896756107259
55.400121445788024
55.399543867906516
55.40103661681707
55.39259923145869
54.49895682685962
54.49154599977212
54.484239872986414
54.47701270760475
54.469843151023426
54.46271490498357
54.45561621537259
54.44853896766423
54.44147787741138
54.43442996470939
78.9585081975481
78.8212955814036
78.68288056497101
78.54323924751688
78.40233412234416
78.26011356234092
78.11650954057174
77.97143353525969
77.82476905008595
77.67635756165751
77.52597157832709
77.3732675621493
77.21778228882006
77.05913351323815
76.89993990956442
76.74050174076442
76.58076618808674
76.42063701175752
76.25995779978396
76.09849201439056
75.93589093845631
75.77166235008417
75.60516781319326
55.51721057997539
55.39697717757126
55.410009655545345
55.40718032232201
55.407831177375755
55.407460886798326
55.408609578228784
55.40138924683059
54.50588587944019
54.49858275469965
54.49137923787947
54.48424239328531
54.47714751693606
54.470077869391616
54.46302271540211
54.45597513315322
54.448930817721376
54.441887409476664
78.96297458146306
78.82576486688136
78.68735742707608
78.5477298569054
78.40684634797432
78.26465750611409
78.12109902347102
77.97608927273437
77.82952506342559
77.6812739358138
77.53115955000571
77.37894065635068
77.2243340925633
77.06715242367648
76.90977616447522
76.75222709143245
76.5944755810292
76.43646361405811
76.27809003671105
76.11918767589988
75.95947895984223
75.79845477935936
75.63531736427016
55.49966481689448
55.41152492754071
55.41620834009103
55.41557646052828
55.41562616559338
55.415503719794074
55.416242745070086
55.41046722762622
54.512782981614684
54.50562777550064
54.49856084922044
54.49153887420119
54.48453419935483
54.47753323707369
54.47052815452658
54.46351431816612
54.456489013026186
54.44945080849811
78.96758860032105
78.83038247840929
78.69198451538244
78.55237368522609
78.41151590264089
78.2693641194605
78.1258579357912
77.98092294929774
77.83446987837581
77.6863934243788
77.53657066614227
77.3848632436443
77.23115303325359
77.07543634572797
76.91988707882763
76.76425269001375
76.6085388707374
76.45273894832862
76.29682599840186
76.14073876952375
75.98434844536109
75.82737827850589
75.66871567633245
55.478166190989405
55.427254237781064
55.422228345355876
55.424158521480784
55.423505528513274
55.423672968905926
55.42393511598858
55.41983559415069
54.519641768968484
54.51269362216927
54.505812555032556
54.49892696633935
54.49202460107019
54.48509940172385
54.478148642369455
54.47117106134647
54.464166087590826
54.45713348458581
78.97234983807638
78.83514793946766
78.69676122949322
78.55716999344291
78.41634186533842
78.27423217958965
78.1307844983059
77.98593171702201
77.83959855622342
77.69170700140131
77.54218776342584
77.39100348483043
77.23819105532282
77.08392435095759
76.93018816895689
76.77646090694464
76.62278918762436
76.46922449485415
76.31582537032614
76.16266066372447
76.0098146116782
75.85739545014805
57.4876198995779
57.4876198995779
57.4876198995779
57.4876198995779
57.4876198995779
57.4876198995779
57.4876198995779
57.4876198995779
57.4876198995779
57.4876198995779
54.519852239549934
54.513177868112074
54.506439691663026
54.49964448048422
54.4927972871454
54.485901881179494
54.47896100614607
54.471976533989555
54.46494955798377
79.77612160061182
79.6404214423159
79.50622103534307
79.37353692343986
79.24239654263714
79.11283836102538
78.9849120649745
78.85867868425741
78.73421043853044
78.61158988053239
78.49090749622424
78.37225618839771
78.25572058863877
78.14136069812572
78.02906918903291
77.91701916674774
77.80520860468403
77.69363424025023
77.58229097661706
77.47117100007937
77.36026240424843
77.24954686270505
57.4876198995779
57.4876198995779
57.4876198995779
57.4876198995779
57.4876198995779
57.4876198995779
57.4876198995779
57.4876198995779
57.4876198995779
57.4876198995779
55.45047097854979
55.44094366570813
55.431727627664124
55.422820216944665
55.41421936911034
55.40592348431837
55.397931356945854
55.39024213312011
55.38285528504336
80.30975916272142
80.17382741214887
80.03870472101454
79.90438492744694
79.77085755403628
79.63810765289212
79.50611558957738
79.374856792968
79.24430152749096
79.11441480043608
78.9851566306639
78.85648310722503
78.72834880660466
78.60071073790374
78.47431163470125
78.34800756459008
78.22179623349412
78.0956756426523
77.96964424836278
77.84370119847523
77.71784670184438
77.59208265399961
57.4876198995779
57.4876198995779
57.4876198995779
57.4876198995779
57.4876198995779
57.4876198995779
57.4876198995779
57.4876198995779
57.4876198995779
57.4876198995779
55.46199860399462
55.45431818943184
55.4466942300784
55.4391277780951
55.431619670721794
55.42417056280392
55.416780946267366
55.40945116196441
55.4021814068818
80.59041524741575
80.45451050220916
80.31935584238562
80.1849531714986
80.0513056109368
79.91841758091334
79.78629491475745
79.65494500040336
79.52437693532362
79.39460166610246
79.2656320529906
79.1374827443385
79.01016970547083
78.88370934908022
78.7586918475478
78.63380746568039
78.50905741590778
78.38444284378059
78.25996478611044
78.13562410841305
78.01142140651793
77.88735683920152
57.4876198995779
57.4876198995779
57.4876198995779
57.4876198995779
57.4876198995779
57.4876198995779
57.4876198995779
57.4876198995779
57.4876198995779
57.4876198995779
55.46190611537848
55.45375736540815
55.44573080288422
55.43782602397976
55.43004269749752
55.42238055585095
55.414839389606115
55.40741904412507
55.40011941750561
80.74847420021081
80.61256769676294
80.47734185669617
80.34279626246934
80.20893010342728
80.07574214277815
79.94323067061259
79.81139344408219
79.68022761777286
79.54972967126068
79.41989534913371
79.29071964387391
79.16219686345511
79.03432079916101
78.90777873234146
78.78134901061549
78.65503110671393
78.52882450654558
78.40272871996554
78.2767432971219
78.15086785445725
78.02510211927992
57.4876198995779
57.4876198995779
57.4876198995779
57.4876198995779
57.4876198995779
57.4876198995779
57.4876198995779
57.4876198995779
57.4876198995779
57.4876198995779
55.46190686747145
55.45388045243973
55.44595875832683
55.43814189053845
55.43042993092168
55.42282294028748
55.41532095995725
55.40792401272635
55.400632103461426
80.8328606744697
80.69695301050479
80.56168912236598
80.42706923301066
80.29309363333255
80.15976269413493
80.02707688329747
79.89503678804017
79.76364314172913
79.63289685365321
79.5027990379881
79.37335103406018
79.24455440679391
79.11641092304842
78.98961015526524
78.86292371999554
78.73635179202037
78.60989454365551
78.48355214203077
78.35732474486085
78.23121249360493
78.1052155016066
57.4876198995779
57.4876198995779
57.4876198995779
57.4876198995779
57.4876198995779
57.4876198995779
57.4876198995779
57.4876198995779
57.4876198995779
57.4876198995779
55.4619179496377
55.45385947179807
55.44591037151481
55.4380705863148
55.43034006106061
55.42271874723614
55.41520660250227
55.40780359041589
55.40050968025384
80.87411829572763
80.73821092422729
80.60293086154492
80.46827818044186
80.33425291328291
80.2008550477566
80.06808452068827
79.93594120989012
79.80442492409641
79.67353539129945
79.5432722464155
79.4136350203822
79.28462313374065
79.15623589587624
79.02917684740447
78.90222931212807
78.77539322841592
78.64866853463079
78.52205516983494
78.39555307492866
78.26916219453756
78.14288248033978
57.4876198995779
57.4876198995779
57.4876198995779
57.4876198995779
57.4876198995779
57.4876198995779
57.4876198995779
57.4876198995779
57.4876198995779
57.4876198995779
55.46191230251981
55.4538623850161
55.445920579796145
55.43808687883548
55.430361271589966
55.42274374521304
55.41523428469314
55.407832872942045
55.400539490850875
80.886428157457
80.75052054697662
80.61523470952805
80.48057076504377
80.34652882959875
80.21310901787746
80.08031144676366
79.94813624011884
79.81658353477496
79.68565348764582
79.555346283564
79.42566214286853
79.29660132728557
79.16816414356116
79.0410554126041
78.91405831260931
78.78717288481967
78.66039917045077
78.5337372103712
78.4071870445662
78.28074871122553
78.15442224510988
57.4876198995779
57.4876198995779
57.4876198995779
57.4876198995779
57.4876198995779
57.4876198995779
57.4876198995779
57.4876198995779
57.4876198995779
57.4876198995779
55.46191485301547
55.453862140448344
55.44591796123073
55.438082286083535
55.43035508701235
55.42273633719318
55.415226010899104
55.40782408345286
55.400530531196324
80.8741182957275
80.73821092422713
80.60293086154475
80.46827818044163
80.33425291328255
80.20085504775605
80.06808452068756
79.93594120988932
79.80442492409553
79.6735353912984
79.54327224641422
79.41363502038067
79.28462313373885
79.15623589587416
79.02917684740213
78.90222931212547
78.77539322841311
78.64866853462777
78.52205516983175
78.39555307492533
78.26916219453419
78.14288248033634
57.4876198995779
57.4876198995779
57.4876198995779
57.4876198995779
57.4876198995779
57.4876198995779
57.4876198995779
57.4876198995779
57.4876198995779
57.4876198995779
55.461912302514406
55.453862385010694
55.44592057979073
55.43808687883006
55.43036127158453
55.42274374520756
55.41523428468764
55.407832872936545
55.40053949084538
80.83286067447342
80.69695301050851
80.5616891223697
80.42706923301442
80.29309363333637
80.15976269413885
80.02707688330142
79.89503678804408
79.76364314173297
79.63289685365707
79.50279903799205
79.37335103406424
79.24455440679807
79.11641092305273
78.98961015526972
78.86292372000014
78.73635179202512
78.60989454366042
78.48355214203578
78.35732474486589
78.23121249360995
78.1052155016116
57.4876198995779
57.4876198995779
57.4876198995779
57.4876198995779
57.4876198995779
57.4876198995779
57.4876198995779
57.4876198995779
57.4876198995779
57.4876198995779
55.46191794962093
55.45385947178122
55.445910371497874
55.43807058629776
55.43034006104347
55.42271874721894
55.41520660248503
55.407803590398615
55.40050968023656
80.74847420021659
80.61256769676875
80.47734185670207
80.34279626247528
80.20893010343319
80.07574214278395
79.94323067061836
79.81139344408791
79.68022761777853
79.54972967126619
79.419895349139
79.29071964387889
79.16219686345981
79.0343207991654
78.90777873234558
78.78134901061941
78.65503110671771
78.52882450654926
78.40272871996915
78.27674329712544
78.15086785446078
78.02510211928342
57.4876198995779
57.4876198995779
57.4876198995779
57.4876198995779
57.4876198995779
57.4876198995779
57.4876198995779
57.4876198995779
57.4876198995779
57.4876198995779
55.461906867470205
55.45388045243849
55.4459587583256
55.43814189053725
55.43042993092052
55.422822940286366
55.41532095995615
55.40792401272523
55.400632103460325
80.59041524742912
80.45451050222253
80.31935584239896
80.1849531715119
80.05130561095005
79.91841758092659
79.78629491477062
79.6549450004165
79.52437693533676
79.39460166611565
79.26563205300384
79.1374827443518
79.01016970548415
78.88370934909355
78.75869184756111
78.63380746569369
78.509057415921
78.38444284379366
78.25996478612343
78.13562410842596
78.01142140653064
77.88735683921409
57.4876198995779
57.4876198995779
57.4876198995779
57.4876198995779
57.4876198995779
57.4876198995779
57.4876198995779
57.4876198995779
57.4876198995779
57.4876198995779
55.4619061153759
55.45375736540555
55.44573080288159
55.437826023977124
55.43004269749487
55.42238055584828
55.41483938960344
55.40741904412242
55.40011941750296
80.30975916273822
80.17382741216566
80.03870472103141
79.90438492746391
79.77085755405335
79.63810765290928
79.50611558959466
79.37485679298537
79.2443015275084
79.11441480045356
78.98515663068144
78.85648310724265
78.72834880662242
78.60071073792166
78.47431163471937
78.34800756460835
78.22179623351256
78.09567564267095
77.96964424838154
77.84370119849409
77.71784670186331
77.59208265401855
57.4876198995779
57.4876198995779
57.4876198995779
57.4876198995779
57.4876198995779
57.4876198995779
57.4876198995779
57.4876198995779
57.4876198995779
57.4876198995779
55.46199860398368
55.454318189420825
55.44669423006734
55.43912777808398
55.43161967071065
55.42417056279278
55.41678094625624
55.409451161953335
55.40218140687073
79.77612160061608
79.64042144232018
79.50622103534735
79.37353692344414
79.24239654264139
79.11283836102957
78.98491206497862
78.85867868426148
78.73421043853448
78.61158988053641
78.49090749622827
78.37225618840175
78.25572058864279
78.14136069812974
78.02906918903687
77.91701916675166
77.80520860468789
77.69363424025396
77.58229097662077
77.47117100008302
77.36026240425196
77.24954686270851
57.4876198995779
57.4876198995779
57.4876198995779
57.4876198995779
57.4876198995779
57.4876198995779
57.4876198995779
57.4876198995779
57.4876198995779
57.4876198995779
55.45047097855081
55.440943665709156
55.43172762766514
55.422820216945695
55.41421936911134
55.405923484319324
55.39793135694674
55.39024213312095
55.38285528504419
78.9723498380768
78.83514793946807
78.6967612294936
78.55716999344325
78.41634186533877
78.27423217959002
78.13078449830638
77.98593171702258
77.83959855622405
77.69170700140201
77.5421877634266
77.39100348483126
77.23819105532372
77.08392435095853
76.93018816895787
76.77646090694567
76.62278918762549
76.46922449485544
76.31582537032746
76.16266066372583
76.00981461167963
75.85739545014954
57.4876198995779
57.4876198995779
57.4876198995779
57.4876198995779
57.4876198995779
57.4876198995779
57.4876198995779
57.4876198995779
57.4876198995779
57.4876198995779
54.51985223954159
54.5131778681038
54.506439691654826
54.49964448047606
54.492797287137286
54.485901881171415
54.47896100613806
54.471976533981575
54.4649495579758
78.96758860032155
78.83038247840973
78.69198451538281
78.55237368522639
78.41151590264123
78.2693641194609
78.1258579357917
77.98092294929836
77.83446987837645
77.68639342437953
77.53657066614305
77.38486324364523
77.23115303325464
77.07543634572896
76.91988707882871
76.7642526900148
76.60853887073857
76.4527389483298
76.29682599840318
76.1407387695251
75.98434844536251
75.82737827850738
75.66871567633397
55.47816619099564
55.427254237804526
55.42222834536447
55.42415852148922
55.42350552854596
55.42367296891317
55.423935115987305
55.41983559415226
54.519641768960135
54.5126936221609
54.50581255502421
54.49892696633104
54.492024601061956
54.485099401715644
54.47814864236128
54.471171061338325
54.464166087582704
54.457133484577675
78.9629745814636
78.82576486688185
78.68735742707649
78.54772985690573
78.40684634797472
78.26465750611449
78.1210990234715
77.976089272735
77.8295250634263
77.68127393581457
77.53115955000649
77.37894065635162
77.22433409256438
77.0671524236775
76.90977616447627
76.75222709143354
76.59447558103037
76.43646361405933
76.27809003671234
76.11918767590123
75.9594789598436
75.79845477936078
75.63531736427166
55.49966481690074
55.411524927564244
55.416208340099644
55.415576460536826
55.41562616562624
55.41550371980132
55.41624274506881
55.41046722762773
54.512782981606236
54.50562777549223
54.498560849212055
54.49153887419282
54.48453419934653
54.477533237065416
54.47052815451835
54.46351431815786
54.45648901301789
54.44945080848986
78.95850819754864
78.82129558140412
78.68288056497147
78.54323924751714
78.40233412234463
78.26011356234127
78.11650954057215
77.97143353526039
77.82476905008673
77.67635756165836
77.52597157832783
77.3732675621503
77.21778228882116
77.05913351323926
76.89993990956557
76.74050174076555
76.58076618808789
76.42063701175874
76.2599577997852
76.09849201439188
75.93589093845763
75.77166235008556
75.60516781319465
55.517210579981814
55.396977177594906
55.41000965555393
55.40718032233075
55.40783117740873
55.40746088680558
55.408609578227455
55.401389246832025
54.50588587943171
54.498582754691206
54.49137923787102
54.484242393276894
54.47714751692769
54.47007786938329
54.4630227153938
54.455975133144904
54.44893081771306
54.44188740946833
78.95418974867046
78.8169749983296
78.67855444115794
78.53890250387505
78.39798004506997
78.25573339439785
78.11209112449214
77.96695839456582
77.8202065046988