# vtk DataFile Version 2.0
Niestacjonarne zagadnienie cieplne - ogrzewanie wody w garnku stalowym
ASCII
DATASET UNSTRUCTURED_GRID
POINTS 1353 float
0.0 0.0 0.0
0.0 3.846153846153846E-4 0.0
0.0 7.692307692307692E-4 0.0
0.0 0.0011538461538461537 0.0
0.0 0.0015384615384615385 0.0
0.0 0.0019230769230769232 0.0
0.0 0.0023076923076923075 0.0
0.0 0.002692307692307692 0.0
0.0 0.003076923076923077 0.0
0.0 0.0034615384615384616 0.0
0.0 0.0038461538461538464 0.0
0.0 0.004230769230769231 0.0
0.0 0.004615384615384615 0.0
0.0 0.005 0.0
0.0 0.005111111111111111 0.0
0.0 0.005222222222222223 0.0
0.0 0.005333333333333333 0.0
0.0 0.0054444444444444445 0.0
0.0 0.005555555555555556 0.0
0.0 0.005666666666666667 0.0
0.0 0.0057777777777777775 0.0
0.0 0.005888888888888889 0.0
0.0 0.006 0.0
0.0 0.01711111111111111 0.0
0.0 0.028222222222222225 0.0
0.0 0.03933333333333333 0.0
0.0 0.050444444444444445 0.0
0.0 0.06155555555555556 0.0
0.0 0.07266666666666667 0.0
0.0 0.08377777777777778 0.0
0.0 0.0948888888888889 0.0
0.0 0.10600000000000001 0.0
0.0 0.10611111111111113 0.0
0.0 0.10622222222222223 0.0
0.0 0.10633333333333335 0.0
0.0 0.10644444444444445 0.0
0.0 0.10655555555555557 0.0
0.0 0.10666666666666667 0.0
0.0 0.10677777777777779 0.0
0.0 0.1068888888888889 0.0
0.0 0.10700000000000001 0.0
1.1111111111111112E-4 0.0 0.0
1.1111111111111112E-4 3.846153846153846E-4 0.0
1.1111111111111112E-4 7.692307692307692E-4 0.0
1.1111111111111112E-4 0.0011538461538461537 0.0
1.1111111111111112E-4 0.0015384615384615385 0.0
1.1111111111111112E-4 0.0019230769230769232 0.0
1.1111111111111112E-4 0.0023076923076923075 0.0
1.1111111111111112E-4 0.002692307692307692 0.0
1.1111111111111112E-4 0.003076923076923077 0.0
1.1111111111111112E-4 0.0034615384615384616 0.0
1.1111111111111112E-4 0.0038461538461538464 0.0
1.1111111111111112E-4 0.004230769230769231 0.0
1.1111111111111112E-4 0.004615384615384615 0.0
1.1111111111111112E-4 0.005 0.0
1.1111111111111112E-4 0.005111111111111111 0.0
1.1111111111111112E-4 0.005222222222222223 0.0
1.1111111111111112E-4 0.005333333333333333 0.0
1.1111111111111112E-4 0.0054444444444444445 0.0
1.1111111111111112E-4 0.005555555555555556 0.0
1.1111111111111112E-4 0.005666666666666667 0.0
1.1111111111111112E-4 0.0057777777777777775 0.0
1.1111111111111112E-4 0.005888888888888889 0.0
1.1111111111111112E-4 0.006 0.0
1.1111111111111112E-4 0.01711111111111111 0.0
1.1111111111111112E-4 0.028222222222222225 0.0
1.1111111111111112E-4 0.03933333333333333 0.0
1.1111111111111112E-4 0.050444444444444445 0.0
1.1111111111111112E-4 0.06155555555555556 0.0
1.1111111111111112E-4 0.07266666666666667 0.0
1.1111111111111112E-4 0.08377777777777778 0.0
1.1111111111111112E-4 0.0948888888888889 0.0
1.1111111111111112E-4 0.10600000000000001 0.0
1.1111111111111112E-4 0.10611111111111113 0.0
1.1111111111111112E-4 0.10622222222222223 0.0
1.1111111111111112E-4 0.10633333333333335 0.0
1.1111111111111112E-4 0.10644444444444445 0.0
1.1111111111111112E-4 0.10655555555555557 0.0
1.1111111111111112E-4 0.10666666666666667 0.0
1.1111111111111112E-4 0.10677777777777779 0.0
1.1111111111111112E-4 0.1068888888888889 0.0
1.1111111111111112E-4 0.10700000000000001 0.0
2.2222222222222223E-4 0.0 0.0
2.2222222222222223E-4 3.846153846153846E-4 0.0
2.2222222222222223E-4 7.692307692307692E-4 0.0
2.2222222222222223E-4 0.0011538461538461537 0.0
2.2222222222222223E-4 0.0015384615384615385 0.0
2.2222222222222223E-4 0.0019230769230769232 0.0
2.2222222222222223E-4 0.0023076923076923075 0.0
2.2222222222222223E-4 0.002692307692307692 0.0
2.2222222222222223E-4 0.003076923076923077 0.0
2.2222222222222223E-4 0.0034615384615384616 0.0
2.2222222222222223E-4 0.0038461538461538464 0.0
2.2222222222222223E-4 0.004230769230769231 0.0
2.2222222222222223E-4 0.004615384615384615 0.0
2.2222222222222223E-4 0.005 0.0
2.2222222222222223E-4 0.005111111111111111 0.0
2.2222222222222223E-4 0.005222222222222223 0.0
2.2222222222222223E-4 0.005333333333333333 0.0
2.2222222222222223E-4 0.0054444444444444445 0.0
2.2222222222222223E-4 0.005555555555555556 0.0
2.2222222222222223E-4 0.005666666666666667 0.0
2.2222222222222223E-4 0.0057777777777777775 0.0
2.2222222222222223E-4 0.005888888888888889 0.0
2.2222222222222223E-4 0.006 0.0
2.2222222222222223E-4 0.01711111111111111 0.0
2.2222222222222223E-4 0.028222222222222225 0.0
2.2222222222222223E-4 0.03933333333333333 0.0
2.2222222222222223E-4 0.050444444444444445 0.0
2.2222222222222223E-4 0.06155555555555556 0.0
2.2222222222222223E-4 0.07266666666666667 0.0
2.2222222222222223E-4 0.08377777777777778 0.0
2.2222222222222223E-4 0.0948888888888889 0.0
2.2222222222222223E-4 0.10600000000000001 0.0
2.2222222222222223E-4 0.10611111111111113 0.0
2.2222222222222223E-4 0.10622222222222223 0.0
2.2222222222222223E-4 0.10633333333333335 0.0
2.2222222222222223E-4 0.10644444444444445 0.0
2.2222222222222223E-4 0.10655555555555557 0.0
2.2222222222222223E-4 0.10666666666666667 0.0
2.2222222222222223E-4 0.10677777777777779 0.0
2.2222222222222223E-4 0.1068888888888889 0.0
2.2222222222222223E-4 0.10700000000000001 0.0
3.333333333333334E-4 0.0 0.0
3.333333333333334E-4 3.846153846153846E-4 0.0
3.333333333333334E-4 7.692307692307692E-4 0.0
3.333333333333334E-4 0.0011538461538461537 0.0
3.333333333333334E-4 0.0015384615384615385 0.0
3.333333333333334E-4 0.0019230769230769232 0.0
3.333333333333334E-4 0.0023076923076923075 0.0
3.333333333333334E-4 0.002692307692307692 0.0
3.333333333333334E-4 0.003076923076923077 0.0
3.333333333333334E-4 0.0034615384615384616 0.0
3.333333333333334E-4 0.0038461538461538464 0.0
3.333333333333334E-4 0.004230769230769231 0.0
3.333333333333334E-4 0.004615384615384615 0.0
3.333333333333334E-4 0.005 0.0
3.333333333333334E-4 0.005111111111111111 0.0
3.333333333333334E-4 0.005222222222222223 0.0
3.333333333333334E-4 0.005333333333333333 0.0
3.333333333333334E-4 0.0054444444444444445 0.0
3.333333333333334E-4 0.005555555555555556 0.0
3.333333333333334E-4 0.005666666666666667 0.0
3.333333333333334E-4 0.0057777777777777775 0.0
3.333333333333334E-4 0.005888888888888889 0.0
3.333333333333334E-4 0.006 0.0
3.333333333333334E-4 0.01711111111111111 0.0
3.333333333333334E-4 0.028222222222222225 0.0
3.333333333333334E-4 0.03933333333333333 0.0
3.333333333333334E-4 0.050444444444444445 0.0
3.333333333333334E-4 0.06155555555555556 0.0
3.333333333333334E-4 0.07266666666666667 0.0
3.333333333333334E-4 0.08377777777777778 0.0
3.333333333333334E-4 0.0948888888888889 0.0
3.333333333333334E-4 0.10600000000000001 0.0
3.333333333333334E-4 0.10611111111111113 0.0
3.333333333333334E-4 0.10622222222222223 0.0
3.333333333333334E-4 0.10633333333333335 0.0
3.333333333333334E-4 0.10644444444444445 0.0
3.333333333333334E-4 0.10655555555555557 0.0
3.333333333333334E-4 0.10666666666666667 0.0
3.333333333333334E-4 0.10677777777777779 0.0
3.333333333333334E-4 0.1068888888888889 0.0
3.333333333333334E-4 0.10700000000000001 0.0
4.4444444444444447E-4 0.0 0.0
4.4444444444444447E-4 3.846153846153846E-4 0.0
4.4444444444444447E-4 7.692307692307692E-4 0.0
4.4444444444444447E-4 0.0011538461538461537 0.0
4.4444444444444447E-4 0.0015384615384615385 0.0
4.4444444444444447E-4 0.0019230769230769232 0.0
4.4444444444444447E-4 0.0023076923076923075 0.0
4.4444444444444447E-4 0.002692307692307692 0.0
4.4444444444444447E-4 0.003076923076923077 0.0
4.4444444444444447E-4 0.0034615384615384616 0.0
4.4444444444444447E-4 0.0038461538461538464 0.0
4.4444444444444447E-4 0.004230769230769231 0.0
4.4444444444444447E-4 0.004615384615384615 0.0
4.4444444444444447E-4 0.005 0.0
4.4444444444444447E-4 0.005111111111111111 0.0
4.4444444444444447E-4 0.005222222222222223 0.0
4.4444444444444447E-4 0.005333333333333333 0.0
4.4444444444444447E-4 0.0054444444444444445 0.0
4.4444444444444447E-4 0.005555555555555556 0.0
4.4444444444444447E-4 0.005666666666666667 0.0
4.4444444444444447E-4 0.0057777777777777775 0.0
4.4444444444444447E-4 0.005888888888888889 0.0
4.4444444444444447E-4 0.006 0.0
4.4444444444444447E-4 0.01711111111111111 0.0
4.4444444444444447E-4 0.028222222222222225 0.0
4.4444444444444447E-4 0.03933333333333333 0.0
4.4444444444444447E-4 0.050444444444444445 0.0
4.4444444444444447E-4 0.06155555555555556 0.0
4.4444444444444447E-4 0.07266666666666667 0.0
4.4444444444444447E-4 0.08377777777777778 0.0
4.4444444444444447E-4 0.0948888888888889 0.0
4.4444444444444447E-4 0.10600000000000001 0.0
4.4444444444444447E-4 0.10611111111111113 0.0
4.4444444444444447E-4 0.10622222222222223 0.0
4.4444444444444447E-4 0.10633333333333335 0.0
4.4444444444444447E-4 0.10644444444444445 0.0
4.4444444444444447E-4 0.10655555555555557 0.0
4.4444444444444447E-4 0.10666666666666667 0.0
4.4444444444444447E-4 0.10677777777777779 0.0
4.4444444444444447E-4 0.1068888888888889 0.0
4.4444444444444447E-4 0.10700000000000001 0.0
5.555555555555556E-4 0.0 0.0
5.555555555555556E-4 3.846153846153846E-4 0.0
5.555555555555556E-4 7.692307692307692E-4 0.0
5.555555555555556E-4 0.0011538461538461537 0.0
5.555555555555556E-4 0.0015384615384615385 0.0
5.555555555555556E-4 0.0019230769230769232 0.0
5.555555555555556E-4 0.0023076923076923075 0.0
5.555555555555556E-4 0.002692307692307692 0.0
5.555555555555556E-4 0.003076923076923077 0.0
5.555555555555556E-4 0.0034615384615384616 0.0
5.555555555555556E-4 0.0038461538461538464 0.0
5.555555555555556E-4 0.004230769230769231 0.0
5.555555555555556E-4 0.004615384615384615 0.0
5.555555555555556E-4 0.005 0.0
5.555555555555556E-4 0.005111111111111111 0.0
5.555555555555556E-4 0.005222222222222223 0.0
5.555555555555556E-4 0.005333333333333333 0.0
5.555555555555556E-4 0.0054444444444444445 0.0
5.555555555555556E-4 0.005555555555555556 0.0
5.555555555555556E-4 0.005666666666666667 0.0
5.555555555555556E-4 0.0057777777777777775 0.0
5.555555555555556E-4 0.005888888888888889 0.0
5.555555555555556E-4 0.006 0.0
5.555555555555556E-4 0.01711111111111111 0.0
5.555555555555556E-4 0.028222222222222225 0.0
5.555555555555556E-4 0.03933333333333333 0.0
5.555555555555556E-4 0.050444444444444445 0.0
5.555555555555556E-4 0.06155555555555556 0.0
[...]
POINT_DATA 1353
SCALARS Temperatura float 1
LOOKUP_TABLE default
68.72732215748646
68.58806593444007
68.44771025840555
68.30621998526027
68.16355369539558
68.01965564062893
67.87445050430283
67.72783445009935
67.57965940236426
67.42969887651012
67.2775969984275
67.12268333096448
66.96395698851386
66.79718957604678
66.62419236579844
66.4557680469845
66.28819414095088
66.1206751490937
65.95262513918759
65.78356741233664
65.6130631563771
65.44068989999406
65.2660353944335
45.22025895774993
45.0098936130335
45.04613488596461
45.037244645828125
45.03951359298
45.038596198958956
45.04032446708075
45.032172602732736
44.37408387298774
44.36857517902365
44.363153787157536
44.357811342647636
44.35253996692987
44.34733260408018
44.342183272402764
44.33708722426022
44.332041032711295
44.32704262973932
68.73029227476464
68.59102989908934
68.45066708071525
68.30917010926343
68.16649761420582
68.02259408679893
67.87738450636115
67.73076579311952
67.58259049629785
67.43263700926941
67.28054327874509
67.12569851328972
66.96690043808219
66.801242468316
66.6328680688567
66.4649548376204
66.29772702902572
66.13044120557112
65.96258799266644
65.79371220136541
65.62338367135925
65.45118181644986
65.27669276815827
45.22352464356517
45.015567031838536
45.05118358575382
45.042456439034524
45.04468154663023
45.04378054469249
45.04548541174215
45.03741405645124
44.37907651102731
44.373570963007694
44.368152701436905
44.36281315128112
44.357544255990874
44.352338833335985
44.347190824145045
44.342095441094045
44.33704924148868
44.33205015327081
68.73340285560454
68.59413731550909
68.45376997197515
68.31226968911798
68.16959556092714
68.02569270150858
67.88048709776044
67.7338774756092
67.58572012448425
67.43580001038298
67.28377042711206
67.12905242599776
66.97047758337001
66.8061709969805
66.64001148163152
66.47375572591051
66.30746276832377
66.14090527194581
65.9736930621906
65.80542540813924
65.63569268067668
65.46407771398634
65.29016017373
45.22300277505736
45.0223598826624
45.0560853237658
45.047851839503885
45.049944248670116
45.04909289812353
45.05072676745376
45.04290043731477
44.384085268123776
44.378591662132834
44.37318523637079
44.36785673484832
44.36259756114463
44.35740016158014
44.35225826015158
44.347166967841375
44.342122809107366
44.33712370885369
68.73665494910928
68.59738809526944
68.45701884206261
68.31551858837715
68.17284735001678
68.02895123138447
67.88375784854269
67.73716892565555
67.58904666524009
67.43918707643398
67.2872687021514
67.13275141390305
66.97463115239049
66.81165005865444
66.64723824663436
66.48255244405138
66.31757191224011
66.15213469361663
65.9859644826419
65.81871421377711
65.6499959374688
65.4793914673828
65.30646419072481
45.218682407182335
45.03027671930515
45.06083849568949
45.05343141913226
45.05530153209104
45.054533386034244
45.056048406689115
45.04863207915033
44.3891095121136
44.38363743220198
44.37825225436693
44.372943504341656
44.36770165807749
44.36251856580626
44.35738764210816
44.35230388542183
44.34726381121069
44.34226536734427
68.74004908846315
68.60078222078089
68.46041351284495
68.31891657617172
68.17625267170186
68.03236924087393
67.88719609412632
67.74063902907142
67.59256809125316
67.44279475650407
67.29102893337094
67.13679002385217
66.97927229676638
66.81759694929073
66.65480827201357
66.4917010793018
66.32821109594958
66.1641932460982
65.99941673780644
65.83357425994357
65.6662921805708
65.49714062359759
65.32564929756029
45.21054565299247
45.03932502653033
45.0654404332465
45.05919611055608
45.060753104044785
45.06010220342452
45.06145010332219
45.0546095138025
44.39414815538984
44.38870863305391
44.3833553840998
44.378076027495624
44.372859689983976
44.36769746336924
44.36258246634256
44.35750967492785
44.35247569232282
44.34747855627948
68.74358550021998
68.60431962968565
68.46395373754196
68.32246332449184
68.17981109432645
68.03594612832404
67.89080092379122
67.74428625599572
67.59628174742811
67.44661784744049
67.29504156146774
67.14114914322028
66.98432839781341
66.82396271303912
66.66279034556231
66.50131541308421
66.33946197951583
66.17709907713784
66.01402707229202
65.84996794656935
65.68455660735893
65.51733749856525
65.34777893196592
45.19856738362176
45.04951530683902
45.06988737847413
45.065147214978346
45.06629854315677
45.06579961540355
45.06693152829504
45.06083348585992
44.39919960176653
44.39380604050755
44.38849739754276
44.3832584291766
44.378076481005145
44.37294190212894
44.367847745884454
44.36278922812605
44.35776323736653
44.35276801919448
68.74726420284533
68.60800017409419
68.4676391981061
68.3261584105255
68.18352206905809
68.03968113765609
67.89457119894207
67.74810872791076
67.60018432942313
67.45065006034928
67.29929513747916
67.14580304510802
66.98973995619534
66.83070043555092
66.67117658534927
66.51140242799487
66.351312636595
66.19080198507939
66.02970899779594
65.86779547242492
65.70471340093962
65.53997264635221
65.37293748507483
45.18271467151148
45.06086123863217
45.07417443787615
45.071286415785806
45.07193729498307
45.07162596029593
45.07249224250634
45.06730497698836
44.404261658323925
44.39893130156295
44.39368297049433
44.38849710550615
44.38335902253007
44.3782587868048
44.373190073572765
44.36814881740972
44.36313249545964
44.358139725615494
68.75108505699286
68.61182360853682
68.47146949932753
68.33000131933902
68.1873849361218
68.04357337116974
67.898505582579
67.75210426575516
67.60427200096187
67.4548842778387
67.30377630082502
67.15072342274316
66.99545535051655
66.8377583276193
66.67991885962716
66.52190530836722
66.3636794551129
66.20517661753681
66.04629122844155
65.88685378047933
65.72658595805049
65.5649785262869
65.40123400822834
45.162945767514636
45.07337996203195
45.07829550130623
45.07761580205723
45.07766866439565
45.07758165470985
45.07813168515959
45.0740252461421
44.40933138899998
44.404088020717765
44.3989201760778
44.39380206958225
44.388717009290154
44.38365704313283
44.37861759759596
44.37359598194952
44.36859062685799
44.363600707055134
68.75504779384194
68.615789588871
68.47544416452097
68.33399144635565
68.19139893195322
68.04762180477711
67.90260257131617
67.75627044755441
67.60854053466018
67.4593127486724
67.30847031878704
67.15588130845725
67.00142737636514
66.84507935259909
66.68894404393033
66.53272558014444
66.37642407821234
66.2200282228212
66.06350756845613
65.90679843222881
65.74977045263391
65.59214623884384
65.43280932540816
45.13920815713597
45.087092614525766
45.08224309275044
45.084137910832425
45.0834918023388
45.083667201896425
45.08384915482781
45.08099589525346
44.41440487442028
44.40928286182641
44.40422583894493
44.399188081562066
44.39416313032373
44.38914754892604
44.384139825329456
44.37913928739488
44.37414564928358
44.369158800634516
68.75915203306374
68.61989767528613
68.47956263337261
68.33812809981697
68.19556319701262
68.05182530482138
67.90686052917347
67.76060467507513
67.61298545227766
67.46392731912886
67.31336172573461
67.16124793313651
67.00761141591505
66.85260295818557
66.69816419962567
66.54373898602421
66.38937095048479
66.23510876503633
66.08100839899343
65.92713640208459
65.7735749894059
65.62043063567259
46.83030506330266
46.83030506330266
46.83030506330266
46.83030506330266
46.83030506330266
46.83030506330266
46.83030506330266
46.83030506330266
46.83030506330266
46.83030506330266
44.4145617788648
44.409625869008906
44.404674760393966
44.39971264371785
44.394742668211265
44.38976719234367
44.38478793681393
44.379806076779325
44.37482229749598
69.48999802206608
69.35216431335645
69.21580176731915
69.08092610670869
68.94756339793089
68.81575018575738
68.68553367918506
68.55697189156226
68.43013353900162
68.30509731549391
68.18194979029228
68.06078050563495
67.94167232362551
67.82468605447117
67.70976183346377
67.5950787958117
67.48063520597638
67.36642804302176
67.25245238640555
67.13870052498628
67.02516058000619
66.9118141829193
46.83030506330266
46.83030506330266
46.83030506330266
46.83030506330266
46.83030506330266
46.83030506330266
46.83030506330266
46.83030506330266
46.83030506330266
46.83030506330266
45.10391488971852
45.09682637032858
45.090003690679794
45.083445092712246
45.07714918942496
45.0711148964173
45.06534138991207
45.05982808131008
45.054574601769765
69.97785112196644
69.83979799856174
69.70256895481207
69.5661581618511
69.43055570059263
69.29574741413505
69.1617147002571
69.02843426825056
68.89587791077474
68.7640123917745
68.63279965350355
68.50219772953265
68.37216290247548
68.24265339791289
68.11441467749651
67.98627717664877
67.85823867088867
67.7302972457034
67.60245146057981
67.47470058776204
67.34704498207819
67.21948670529547
46.83030506330266
46.83030506330266
46.83030506330266
46.83030506330266
46.83030506330266
46.83030506330266
46.83030506330266
46.83030506330266
46.83030506330266
46.83030506330266
45.11227066676081
45.106559329324206
45.10092438701549
45.09536655798658
45.08988641723071
45.08448441546764
45.07916089081706
45.07391607593968
45.06875010239759
70.23377173437525
70.09574432060347
69.95848947749622
69.82200902755753
69.6863059512396
69.55138446394604
69.41725012514851
69.28390997421515
69.15137268069482
69.01964868335271
68.88875026458
68.75869145643271
68.62948763138508
68.50115469294572
68.37429009125182
68.24756369346913
68.12097667165585
67.9945301265873
67.86822504470709
67.7420622349171
67.61604223003467
67.49016511971854
46.83030506330266
46.83030506330266
46.83030506330266
46.83030506330266
46.83030506330266
46.83030506330266
46.83030506330266
46.83030506330266
46.83030506330266
46.83030506330266
45.11219599984876
45.106135144641264
45.10019958914839
45.0943890412783
45.088703258477196
45.08314204245562
45.07770523589099
45.0723927203846
45.067204415201545
70.3779260781049
70.23989698651434
70.10257697330344
69.9659656566997
69.83006228287458
69.69486569456085
69.56037428628393
69.42658594716043
69.29349799392479
69.1611071003655
69.02940923678084
68.89839964677554
68.76807290086813
68.6384230507853
68.51013865774796
68.38197281860347
68.25392503110571
68.12599480757471
67.99818168600375
67.87048524660258
67.7429051378637
67.6154411210807
46.83030506330266
46.83030506330266
46.83030506330266
46.83030506330266
46.83030506330266
46.83030506330266
46.83030506330266
46.83030506330266
46.83030506330266
46.83030506330266
45.112196542040564
45.106226976954325
45.10036971784624
45.09462483223761
45.08899237129596
45.08347237132348
45.07806485470082
45.072769830480475
45.0675872947571
70.45482934369157
70.3167991689966
70.17944441314056
70.04276530207288
69.90676212692831
69.77143525540285
69.6367851480967
69.50281237976237
69.36951766499189
69.23690188697695
69.10496612599972
68.97371168059315
68.84314007091558
68.71325301783112
68.5847404589237
68.45634849276152
68.32807728974893
68.19992701740684
68.07189783755298
67.94398990201111
67.81620334574406
67.68853827499788
46.83030506330266
46.83030506330266
46.83030506330266
46.83030506330266
46.83030506330266
46.83030506330266
46.83030506330266
46.83030506330266
46.83030506330266
46.83030506330266
45.11220476431294
45.10621127336261
45.10033355249362
45.094571549411604
45.088925216936936
45.08339451257865
45.07797939826019
45.072679840144
45.06749580852083
70.49241672805579
70.35438683405678
70.21701738325196
70.08030845857117
69.9442601049174
69.80887232509941
69.6741450739427
69.54007825051681
69.40667168850706
69.27392514499283
69.14183828844162
69.01041068778672
68.87964180545092
68.74953099611426
68.62078112440048
68.49214921244284
68.36363520375355
68.235239041986
68.10696067167203
67.97880003938126
67.85075709561973
67.72283179815956
46.83030506330266
46.83030506330266
46.83030506330266
46.83030506330266
46.83030506330266
46.83030506330266
46.83030506330266
46.83030506330266
46.83030506330266
46.83030506330266
45.112200539972704
45.10621343678098
45.1003411624407
45.094583703802314
45.08894104591092
45.08341317213753
45.078000064265076
45.0727017025443
45.067518065729644
70.50362847842966
70.36559835951466
70.22822362791072
70.091504411323
69.95544083408375
69.8200330194962
69.68528109325
69.55118518797501
69.41774544896694
69.28496204101336
69.152835155984
69.02136502032579
68.89055190109976
68.76039610970929
68.631601611168
68.50292520513574
68.37436693353858
68.24592683819883
68.11760496049794
67.98940134082814
67.86131601767306
67.73334902597098
46.83030506330266
46.83030506330266
46.83030506330266
46.83030506330266
46.83030506330266
46.83030506330266
46.83030506330266
46.83030506330266
46.83030506330266
46.83030506330266
45.112202439043685
45.10621325020174
45.10033920343836
45.09458027023763
45.08893642297177
45.083407634831445
45.07799387977942
45.07269513252019
45.06751136848025
70.49241672805567
70.35438683405664
70.21701738325179
70.08030845857093
69.94426010491705
69.80887232509889
69.67414507394204
69.54007825051609
69.40667168850625
69.27392514499186
69.14183828844045
69.01041068778534
68.87964180544931
68.74953099611243
68.6207811243984
68.49214921244057
68.3636352037511
68.23523904198338
68.10696067166923
67.97880003937836
67.85075709561679
67.72283179815658
46.83030506330266
46.83030506330266
46.83030506330266
46.83030506330266
46.83030506330266
46.83030506330266
46.83030506330266
46.83030506330266
46.83030506330266
46.83030506330266
45.11220053996829
45.10621343677657
45.10034116243629
45.09458370379789
45.08894104590647
45.083413172133056
45.07800006426058
45.072701702539796
45.06751806572515
70.45482934369471
70.31679916899974
70.17944441314371
70.04276530207608
69.90676212693157
69.77143525540619
69.63678514810005
69.5028123797657
69.36951766499519
69.23690188698028
69.10496612600312
68.97371168059667
68.84314007091916
68.71325301783483
68.58474045892754
68.45634849276547
68.32807728975298
68.19992701741103
68.07189783755726
67.94398990201543
67.81620334574835
67.68853827500217
46.83030506330266
46.83030506330266
46.83030506330266
46.83030506330266
46.83030506330266
46.83030506330266
46.83030506330266
46.83030506330266
46.83030506330266
46.83030506330266
45.11220476429939
45.106211273349
45.10033355247993
45.094571549397834
45.08892521692309
45.08339451256476
45.07797939824626
45.07267984013006
45.06749580850689
70.37792607810991
70.23989698651935
70.10257697330854
69.96596565670484
69.8300622828797
69.69486569456586
69.56037428628893
69.4265859471654
69.29349799392972
69.1611071003703
69.02940923678544
68.8983996467799
68.76807290087224
68.63842305078914
68.51013865775158
68.38197281860693
68.25392503110905
68.12599480757797
67.99818168600692
67.87048524660568
67.74290513786679
67.61544112108376
46.83030506330266
46.83030506330266
46.83030506330266
46.83030506330266
46.83030506330266
46.83030506330266
46.83030506330266
46.83030506330266
46.83030506330266
46.83030506330266
45.11219654203948
45.10622697695324
45.100369717845176
45.09462483223657
45.08899237129494
45.083472371322515
45.07806485469987
45.072769830479515
45.06758729475614
70.23377173438685
70.09574432061507
69.95848947750778
69.82200902756904
69.68630595125109
69.5513844639575
69.41725012515995
69.28390997422655
69.15137268070625
69.01964868336418
68.88875026459152
68.75869145644428
68.62948763139667
68.50115469295734
68.37429009126343
68.24756369348076
68.12097667166742
67.99453012659873
67.86822504471844
67.74206223492838
67.6160422300458
67.49016511972955
46.83030506330266
46.83030506330266
46.83030506330266
46.83030506330266
46.83030506330266
46.83030506330266
46.83030506330266
46.83030506330266
46.83030506330266
46.83030506330266
45.112195999846676
45.10613514463916
45.10019958914626
45.09438904127617
45.088703258475064
45.083142042453474
45.07770523588884
45.07239272038247
45.06720441519942
69.97785112198102
69.83979799857633
69.70256895482672
69.56615816186581
69.43055570060741
69.29574741414991
69.16171470027204
69.0284342682656
68.89587791078984
68.76401239178963
68.63279965351873
68.5021977295479
68.37216290249084
68.2426533979284
68.11441467751219
67.98627717666459
67.85823867090463
67.73029724571951
67.60245146059603
67.47470058777834
67.34704498209456
67.21948670531185
46.83030506330266
46.83030506330266
46.83030506330266
46.83030506330266
46.83030506330266
46.83030506330266
46.83030506330266
46.83030506330266
46.83030506330266
46.83030506330266
45.11227066675194
45.10655932931528
45.100924387006515
45.09536655797756
45.089886417221685
45.08448441545862
45.07916089080804
45.0739160759307
45.0687501023886
69.48999802206967
69.35216431336005
69.21580176732276
69.08092610671233
68.94756339793453
68.815750185761
68.68553367918862
68.55697189156575
68.43013353900508
68.30509731549738
68.18194979029576
68.06078050563843
67.94167232362899
67.82468605447465
67.7097618334672
67.59507879581508
67.48063520597972
67.366428043025
67.25245238640878
67.13870052498946
67.02516058000928
66.91181418292234
46.83030506330266
46.83030506330266
46.83030506330266
46.83030506330266
46.83030506330266
46.83030506330266
46.83030506330266
46.83030506330266
46.83030506330266
46.83030506330266
45.10391488971931
45.096826370329374
45.09000369068059
45.08344509271305
45.07714918942574
45.07111489641803
45.06534138991277
45.059828081310734
45.05457460177041
68.75915203306408
68.61989767528648
68.47956263337295
68.33812809981725
68.19556319701289
68.05182530482165
67.90686052917383
67.76060467507557
67.61298545227817
67.4639273191294
67.3133617257352
67.16124793313718
67.00761141591578
66.85260295818631
66.69816419962646
66.54373898602506
66.38937095048571
66.23510876503741
66.08100839899453
65.92713640208574
65.7735749894071
65.62043063567383
46.83030506330266
46.83030506330266
46.83030506330266
46.83030506330266
46.83030506330266
46.83030506330266
46.83030506330266
46.83030506330266
46.83030506330266
46.83030506330266
44.41456177885787
44.40962586900205
44.40467476038717
44.39971264371107
44.39474266820452
44.38976719233697
44.384787936807285
44.37980607677272
44.37482229748937
68.75504779384237
68.61578958887138
68.47544416452126
68.33399144635591
68.19139893195353
68.04762180477739
67.90260257131655
67.75627044755487
67.60854053466073
67.45931274867304
67.30847031878764
67.15588130845805
67.00142737636594
66.8450793525999
66.68894404393123
66.53272558014532
66.3764240782133
66.22002822282224
66.06350756845724
65.90679843222995
65.74977045263508
65.59214623884506
65.4328093254094
45.13920815714109
45.08709261454481
45.08224309275754
45.08413791083917
45.08349180236539
45.08366720190246
45.08384915482698
45.08099589525459
44.41440487441333
44.409282861819456
44.40422583893804
44.399188081555224
44.39416313031696
44.38914754891927
44.384139825322684
44.379139287388135
44.37414564927686
44.369158800627794
68.75108505699332
68.61182360853725
68.47146949932781
68.3300013193393
68.18738493612211
68.04357337117003
67.8985055825794
67.75210426575568
67.60427200096245
67.45488427783935
67.30377630082566
67.15072342274401
66.9954553505174
66.83775832762016
66.67991885962809
66.52190530836818
66.36367945511387
66.20517661753787
66.04629122844263
65.88685378048046
65.72658595805166
65.56497852628806
65.40123400822957
45.16294576751984
45.073379962051035
45.07829550131336
45.07761580206406
45.07766866442229
45.077581654715885
45.07813168515876
45.074025246143165
44.40933138899296
44.40408802071081
44.398920176070874
44.393802069575365
44.388717009283305
44.383657043126036
44.378617597589184
44.37359598194273
44.36859062685117
44.36360070704831
68.7472642028458
68.60800017409461
68.46763919810641
68.32615841052576
68.1835220690584
68.0396811376563
67.89457119894246
67.74810872791134
67.60018432942377
67.45065006035
67.29929513747979
67.1458030451089
66.98973995619627
66.83070043555186
66.67117658535025
66.51140242799583
66.35131263659598
66.19080198508041
66.02970899779699
65.86779547242601
65.70471340094075
65.5399726463534
65.37293748507605
45.182714671516706
45.060861238651405
45.07417443788331
45.07128641579274
45.0719372950098
45.071625960301986
45.07249224250548
45.06730497698939
44.40426165831687
44.39893130155594
44.39368297048736
44.38849710549918
44.383359022523166
44.3782587867979
44.37319007356589
44.368148817402854
44.363132495452774
44.35813972560863
68.74358550022046
68.60431962968609