# vtk DataFile Version 2.0
Niestacjonarne zagadnienie cieplne - ogrzewanie wody w garnku stalowym
ASCII
DATASET UNSTRUCTURED_GRID
POINTS 1353 float
0.0 0.0 0.0
0.0 3.846153846153846E-4 0.0
0.0 7.692307692307692E-4 0.0
0.0 0.0011538461538461537 0.0
0.0 0.0015384615384615385 0.0
0.0 0.0019230769230769232 0.0
0.0 0.0023076923076923075 0.0
0.0 0.002692307692307692 0.0
0.0 0.003076923076923077 0.0
0.0 0.0034615384615384616 0.0
0.0 0.0038461538461538464 0.0
0.0 0.004230769230769231 0.0
0.0 0.004615384615384615 0.0
0.0 0.005 0.0
0.0 0.005111111111111111 0.0
0.0 0.005222222222222223 0.0
0.0 0.005333333333333333 0.0
0.0 0.0054444444444444445 0.0
0.0 0.005555555555555556 0.0
0.0 0.005666666666666667 0.0
0.0 0.0057777777777777775 0.0
0.0 0.005888888888888889 0.0
0.0 0.006 0.0
0.0 0.01711111111111111 0.0
0.0 0.028222222222222225 0.0
0.0 0.03933333333333333 0.0
0.0 0.050444444444444445 0.0
0.0 0.06155555555555556 0.0
0.0 0.07266666666666667 0.0
0.0 0.08377777777777778 0.0
0.0 0.0948888888888889 0.0
0.0 0.10600000000000001 0.0
0.0 0.10611111111111113 0.0
0.0 0.10622222222222223 0.0
0.0 0.10633333333333335 0.0
0.0 0.10644444444444445 0.0
0.0 0.10655555555555557 0.0
0.0 0.10666666666666667 0.0
0.0 0.10677777777777779 0.0
0.0 0.1068888888888889 0.0
0.0 0.10700000000000001 0.0
1.1111111111111112E-4 0.0 0.0
1.1111111111111112E-4 3.846153846153846E-4 0.0
1.1111111111111112E-4 7.692307692307692E-4 0.0
1.1111111111111112E-4 0.0011538461538461537 0.0
1.1111111111111112E-4 0.0015384615384615385 0.0
1.1111111111111112E-4 0.0019230769230769232 0.0
1.1111111111111112E-4 0.0023076923076923075 0.0
1.1111111111111112E-4 0.002692307692307692 0.0
1.1111111111111112E-4 0.003076923076923077 0.0
1.1111111111111112E-4 0.0034615384615384616 0.0
1.1111111111111112E-4 0.0038461538461538464 0.0
1.1111111111111112E-4 0.004230769230769231 0.0
1.1111111111111112E-4 0.004615384615384615 0.0
1.1111111111111112E-4 0.005 0.0
1.1111111111111112E-4 0.005111111111111111 0.0
1.1111111111111112E-4 0.005222222222222223 0.0
1.1111111111111112E-4 0.005333333333333333 0.0
1.1111111111111112E-4 0.0054444444444444445 0.0
1.1111111111111112E-4 0.005555555555555556 0.0
1.1111111111111112E-4 0.005666666666666667 0.0
1.1111111111111112E-4 0.0057777777777777775 0.0
1.1111111111111112E-4 0.005888888888888889 0.0
1.1111111111111112E-4 0.006 0.0
1.1111111111111112E-4 0.01711111111111111 0.0
1.1111111111111112E-4 0.028222222222222225 0.0
1.1111111111111112E-4 0.03933333333333333 0.0
1.1111111111111112E-4 0.050444444444444445 0.0
1.1111111111111112E-4 0.06155555555555556 0.0
1.1111111111111112E-4 0.07266666666666667 0.0
1.1111111111111112E-4 0.08377777777777778 0.0
1.1111111111111112E-4 0.0948888888888889 0.0
1.1111111111111112E-4 0.10600000000000001 0.0
1.1111111111111112E-4 0.10611111111111113 0.0
1.1111111111111112E-4 0.10622222222222223 0.0
1.1111111111111112E-4 0.10633333333333335 0.0
1.1111111111111112E-4 0.10644444444444445 0.0
1.1111111111111112E-4 0.10655555555555557 0.0
1.1111111111111112E-4 0.10666666666666667 0.0
1.1111111111111112E-4 0.10677777777777779 0.0
1.1111111111111112E-4 0.1068888888888889 0.0
1.1111111111111112E-4 0.10700000000000001 0.0
2.2222222222222223E-4 0.0 0.0
2.2222222222222223E-4 3.846153846153846E-4 0.0
2.2222222222222223E-4 7.692307692307692E-4 0.0
2.2222222222222223E-4 0.0011538461538461537 0.0
2.2222222222222223E-4 0.0015384615384615385 0.0
2.2222222222222223E-4 0.0019230769230769232 0.0
2.2222222222222223E-4 0.0023076923076923075 0.0
2.2222222222222223E-4 0.002692307692307692 0.0
2.2222222222222223E-4 0.003076923076923077 0.0
2.2222222222222223E-4 0.0034615384615384616 0.0
2.2222222222222223E-4 0.0038461538461538464 0.0
2.2222222222222223E-4 0.004230769230769231 0.0
2.2222222222222223E-4 0.004615384615384615 0.0
2.2222222222222223E-4 0.005 0.0
2.2222222222222223E-4 0.005111111111111111 0.0
2.2222222222222223E-4 0.005222222222222223 0.0
2.2222222222222223E-4 0.005333333333333333 0.0
2.2222222222222223E-4 0.0054444444444444445 0.0
2.2222222222222223E-4 0.005555555555555556 0.0
2.2222222222222223E-4 0.005666666666666667 0.0
2.2222222222222223E-4 0.0057777777777777775 0.0
2.2222222222222223E-4 0.005888888888888889 0.0
2.2222222222222223E-4 0.006 0.0
2.2222222222222223E-4 0.01711111111111111 0.0
2.2222222222222223E-4 0.028222222222222225 0.0
2.2222222222222223E-4 0.03933333333333333 0.0
2.2222222222222223E-4 0.050444444444444445 0.0
2.2222222222222223E-4 0.06155555555555556 0.0
2.2222222222222223E-4 0.07266666666666667 0.0
2.2222222222222223E-4 0.08377777777777778 0.0
2.2222222222222223E-4 0.0948888888888889 0.0
2.2222222222222223E-4 0.10600000000000001 0.0
2.2222222222222223E-4 0.10611111111111113 0.0
2.2222222222222223E-4 0.10622222222222223 0.0
2.2222222222222223E-4 0.10633333333333335 0.0
2.2222222222222223E-4 0.10644444444444445 0.0
2.2222222222222223E-4 0.10655555555555557 0.0
2.2222222222222223E-4 0.10666666666666667 0.0
2.2222222222222223E-4 0.10677777777777779 0.0
2.2222222222222223E-4 0.1068888888888889 0.0
2.2222222222222223E-4 0.10700000000000001 0.0
3.333333333333334E-4 0.0 0.0
3.333333333333334E-4 3.846153846153846E-4 0.0
3.333333333333334E-4 7.692307692307692E-4 0.0
3.333333333333334E-4 0.0011538461538461537 0.0
3.333333333333334E-4 0.0015384615384615385 0.0
3.333333333333334E-4 0.0019230769230769232 0.0
3.333333333333334E-4 0.0023076923076923075 0.0
3.333333333333334E-4 0.002692307692307692 0.0
3.333333333333334E-4 0.003076923076923077 0.0
3.333333333333334E-4 0.0034615384615384616 0.0
3.333333333333334E-4 0.0038461538461538464 0.0
3.333333333333334E-4 0.004230769230769231 0.0
3.333333333333334E-4 0.004615384615384615 0.0
3.333333333333334E-4 0.005 0.0
3.333333333333334E-4 0.005111111111111111 0.0
3.333333333333334E-4 0.005222222222222223 0.0
3.333333333333334E-4 0.005333333333333333 0.0
3.333333333333334E-4 0.0054444444444444445 0.0
3.333333333333334E-4 0.005555555555555556 0.0
3.333333333333334E-4 0.005666666666666667 0.0
3.333333333333334E-4 0.0057777777777777775 0.0
3.333333333333334E-4 0.005888888888888889 0.0
3.333333333333334E-4 0.006 0.0
3.333333333333334E-4 0.01711111111111111 0.0
3.333333333333334E-4 0.028222222222222225 0.0
3.333333333333334E-4 0.03933333333333333 0.0
3.333333333333334E-4 0.050444444444444445 0.0
3.333333333333334E-4 0.06155555555555556 0.0
3.333333333333334E-4 0.07266666666666667 0.0
3.333333333333334E-4 0.08377777777777778 0.0
3.333333333333334E-4 0.0948888888888889 0.0
3.333333333333334E-4 0.10600000000000001 0.0
3.333333333333334E-4 0.10611111111111113 0.0
3.333333333333334E-4 0.10622222222222223 0.0
3.333333333333334E-4 0.10633333333333335 0.0
3.333333333333334E-4 0.10644444444444445 0.0
3.333333333333334E-4 0.10655555555555557 0.0
3.333333333333334E-4 0.10666666666666667 0.0
3.333333333333334E-4 0.10677777777777779 0.0
3.333333333333334E-4 0.1068888888888889 0.0
3.333333333333334E-4 0.10700000000000001 0.0
4.4444444444444447E-4 0.0 0.0
4.4444444444444447E-4 3.846153846153846E-4 0.0
4.4444444444444447E-4 7.692307692307692E-4 0.0
4.4444444444444447E-4 0.0011538461538461537 0.0
4.4444444444444447E-4 0.0015384615384615385 0.0
4.4444444444444447E-4 0.0019230769230769232 0.0
4.4444444444444447E-4 0.0023076923076923075 0.0
4.4444444444444447E-4 0.002692307692307692 0.0
4.4444444444444447E-4 0.003076923076923077 0.0
4.4444444444444447E-4 0.0034615384615384616 0.0
4.4444444444444447E-4 0.0038461538461538464 0.0
4.4444444444444447E-4 0.004230769230769231 0.0
4.4444444444444447E-4 0.004615384615384615 0.0
4.4444444444444447E-4 0.005 0.0
4.4444444444444447E-4 0.005111111111111111 0.0
4.4444444444444447E-4 0.005222222222222223 0.0
4.4444444444444447E-4 0.005333333333333333 0.0
4.4444444444444447E-4 0.0054444444444444445 0.0
4.4444444444444447E-4 0.005555555555555556 0.0
4.4444444444444447E-4 0.005666666666666667 0.0
4.4444444444444447E-4 0.0057777777777777775 0.0
4.4444444444444447E-4 0.005888888888888889 0.0
4.4444444444444447E-4 0.006 0.0
4.4444444444444447E-4 0.01711111111111111 0.0
4.4444444444444447E-4 0.028222222222222225 0.0
4.4444444444444447E-4 0.03933333333333333 0.0
4.4444444444444447E-4 0.050444444444444445 0.0
4.4444444444444447E-4 0.06155555555555556 0.0
4.4444444444444447E-4 0.07266666666666667 0.0
4.4444444444444447E-4 0.08377777777777778 0.0
4.4444444444444447E-4 0.0948888888888889 0.0
4.4444444444444447E-4 0.10600000000000001 0.0
4.4444444444444447E-4 0.10611111111111113 0.0
4.4444444444444447E-4 0.10622222222222223 0.0
4.4444444444444447E-4 0.10633333333333335 0.0
4.4444444444444447E-4 0.10644444444444445 0.0
4.4444444444444447E-4 0.10655555555555557 0.0
4.4444444444444447E-4 0.10666666666666667 0.0
4.4444444444444447E-4 0.10677777777777779 0.0
4.4444444444444447E-4 0.1068888888888889 0.0
4.4444444444444447E-4 0.10700000000000001 0.0
5.555555555555556E-4 0.0 0.0
5.555555555555556E-4 3.846153846153846E-4 0.0
5.555555555555556E-4 7.692307692307692E-4 0.0
5.555555555555556E-4 0.0011538461538461537 0.0
5.555555555555556E-4 0.0015384615384615385 0.0
5.555555555555556E-4 0.0019230769230769232 0.0
5.555555555555556E-4 0.0023076923076923075 0.0
5.555555555555556E-4 0.002692307692307692 0.0
5.555555555555556E-4 0.003076923076923077 0.0
5.555555555555556E-4 0.0034615384615384616 0.0
5.555555555555556E-4 0.0038461538461538464 0.0
5.555555555555556E-4 0.004230769230769231 0.0
5.555555555555556E-4 0.004615384615384615 0.0
5.555555555555556E-4 0.005 0.0
5.555555555555556E-4 0.005111111111111111 0.0
5.555555555555556E-4 0.005222222222222223 0.0
5.555555555555556E-4 0.005333333333333333 0.0
5.555555555555556E-4 0.0054444444444444445 0.0
5.555555555555556E-4 0.005555555555555556 0.0
5.555555555555556E-4 0.005666666666666667 0.0
5.555555555555556E-4 0.0057777777777777775 0.0
5.555555555555556E-4 0.005888888888888889 0.0
5.555555555555556E-4 0.006 0.0
5.555555555555556E-4 0.01711111111111111 0.0
5.555555555555556E-4 0.028222222222222225 0.0
5.555555555555556E-4 0.03933333333333333 0.0
5.555555555555556E-4 0.050444444444444445 0.0
5.555555555555556E-4 0.06155555555555556 0.0
[...]
POINT_DATA 1353
SCALARS Temperatura float 1
LOOKUP_TABLE default
93.71655130185474
93.58231402192696
93.44671646929537
93.30972063762559
93.17128008880465
93.03133133524038
92.88978749465676
92.74652705783402
92.60137411038063
92.45405413338722
92.30413182161267
92.15075839522541
91.99270934710329
91.8240521029084
91.64641835092058
91.47609262974517
91.30748237726439
91.13949646558676
90.97137636425602
90.80254270377246
90.63248490565938
90.46072558115215
90.28680693872289
70.48862363729668
70.28355765314387
70.31877871362066
70.31010675033413
70.31239570935033
70.31117800428454
70.31422047885471
70.29865438620756
69.0753726475435
69.06472286686552
69.05421391630838
69.04382309516673
69.03352904517666
69.02331266718772
69.01315778638964
69.00305157474298
68.99298478000405
68.98295182693434
93.72101605972715
93.58677296491973
93.45116867006342
93.31416661264745
93.17572042399148
93.0357669026524
92.89421952953948
92.75095779068597
92.60580641669596
92.45849776475886
92.30858583328627
92.1553110428066
91.99713500542693
91.83014689735717
91.65956960093382
91.48998649720743
91.32186093693916
91.15418084792726
90.98630488825735
90.81768711687631
90.6478315258844
90.4762658121604
90.302532622081
70.49707871708164
70.29438386673462
70.32898938078523
70.32047845138345
70.32272304018429
70.32152594526084
70.32452812646613
70.3091084846681
69.08537461887799
69.07473432433909
69.06423475879677
69.05385263827263
69.04356613359806
69.03335581170396
69.02320529304325
69.01310164464682
69.00303557250612
68.99300149056283
93.72563564851885
93.59138980478521
93.45578161803327
93.31877712966977
93.18033049975308
93.0403792753765
92.89883820251985
92.75558904393844
92.61046133444479
92.46319569687087
92.31336609743438
92.16025477619476
92.00236143941935
91.83733568915845
91.67000839367559
91.50280898288352
91.33594342286555
91.16918897902072
91.0020860515967
90.83417327911937
90.66498992157693
90.49407559740055
90.32097212288774
70.50179017932332
70.30629825233635
70.33904055269886
70.331017027002
70.33312730893266
70.33199266445571
70.33487256923391
70.31989898277948
69.09530828516883
69.08470147009685
69.07423496024047
69.06388366883445
69.05362433882676
69.04343655569217
69.03330336725179
69.02321157175093
69.01315178792424
69.0031184212039
93.73041109967026
93.59616443478836
93.46055520242066
93.32355202696421
93.18511009428416
93.04516814915456
92.9036429764597
92.7604201345883
92.6153367092263
92.46814730667357
92.31845881633386
92.16560154855614
92.00830506904515
91.84512594771974
91.68022541523688
91.51516089439144
91.3500094662499
91.18464353611793
91.01877543772278
90.8520270845214
90.68397696745858
90.51417475655902
90.34215382615545
70.50274665724402
70.31930544886845
70.34893060272857
70.34172305391763
70.34360832897777
70.3425783337834
70.34525353736632
70.33102656702097
69.10517207416713
69.09462481958144
69.08421690664763
69.0739200232119
69.06370846018692
69.05356022973288
69.0434575634404
69.03338696186728
69.02333901870004
69.01330819886105
93.7353429164861
93.6010968063658
93.46548921041446
93.328491030897
93.1900588392947
93.05013299788386
92.90863303593326
92.76544967440913
92.62042997888237
92.47334829534229
92.32385179319466
92.17134662511195
92.01483642474965
91.85340286085604
91.69063873040636
91.52761463330715
91.36433091657494
91.20067716891705
91.03642965092169
90.87127056002986
90.70480762207946
90.53658974053185
90.36612508591541
70.49992959377693
70.33341307695525
70.35865682980467
70.3525974744635
70.35416577709476
70.35328322578876
70.35567056960008
70.34249235888329
69.11496329071103
69.10450551481279
69.09418509890402
69.08396868284592
69.07382699620995
69.06373605501176
69.05367731203647
69.0436372068186
69.03360656132345
69.02358007558131
93.74043128357903
93.60618681374508
93.47058334678232
93.33359375414757
93.19517622234368
93.05527309632991
92.91380726531736
92.77067575576459
92.62573781585303
92.4787920278232
92.32953289827267
92.17746557129335
92.02185343401192
91.8621086481089
91.70138158515987
91.54038270224513
91.37908020093452
91.21737157759334
91.05506941664126
90.89189528344082
90.72747588305894
90.56134357622311
90.39295309291427
70.49331299246643
70.34863181223119
70.36821543624183
70.3636416035992
70.36479919049842
70.3641077173216
70.3661230022559
70.35429795357622
69.12467797610452
69.11434589390129
69.1041471588393
69.09404083364568
69.08399296962715
69.07397764231071
69.0639761357919
69.05397551273342
69.04396734196855
69.03394686892393
93.74567616564042
93.61143425345387
93.47583723170573
93.33885969885662
93.20046159313254
93.06058753523358
92.9191642711296
92.7760960430894
92.63125607139021
92.4844705110857
92.33548767460573
92.18392489239622
92.02927636921137
91.87119344212184
91.7124780774563
91.55352646284811
91.39430389291103
91.23472714116073
91.07464712842149
90.91382972738792
90.75192519408193
90.588438287396
90.42272664321867
70.48286292015179
70.3649755277977
70.37760148599415
70.37485714165635
70.37550796174472
70.37505229560988
70.37660995117666
70.36644548420894
69.13431067418685
69.1241507328233
69.11411586066153
69.10415375175441
69.09422519202427
69.08430358799883
69.07437181747925
69.06441882223862
69.054437716695
69.04442472564207
93.75107735799611
93.6168388126085
93.48125039543768
93.34428826028883
93.20591417178679
93.06607523757863
92.92470242030411
92.78170783281436
92.63697992786935
92.49037473404782
92.3416991938085
92.19068801502797
92.03703939918516
91.880604028247
91.72389855416256
91.5670221045315
91.40995750277871
91.25265637873417
91.09502396973386
90.93689648299197
90.77799742386773
90.61781786519772
90.45555961218122
70.46853654533591
70.38246156389675
70.38680882772034
70.38624619709307
70.38629133002783
70.38611756827102
70.38713028187048
70.37893772855567
69.14385404055751
69.13393025235254
69.12411321655411
69.1143342000058
69.10454968139364
69.09473791213908
69.08488633950958
69.0749875165133
69.06503706916665
69.05503269024898
93.7566345152651
93.62240006821095
93.48682227461737
93.34987873046462
93.21153305824738
93.07173497811824
92.93041988137519
92.78750812590086
92.64290408328398
92.49649490335608
92.3481487584562
92.19771798656086
92.0450847792768
91.89028234658176
91.7355817424251
91.5807931681913
91.42593038788134
91.27099345195671
91.11596053507134
90.96077390684472
90.80530698854812
90.64928396452653
90.49159785049486
70.45028025117634
70.40111124864835
70.39582994934655
70.39781132836934
70.39714836581737
70.39730428033592
70.39768255865503
70.39177829202818
69.1532981700756
69.14370555083677
69.13418303777127
69.12462155649555
69.11500045913644
69.10530989236864
69.0955453723935
69.08570478384925
69.07578714262958
69.06579202952847
93.76234716967903
93.62811749058223
93.49255221080247
93.35563030188413
93.21731724249902
93.07756540498495
92.93631466767809
92.79349371283197
92.64902293209849
92.5028207299609
92.35481674678287
92.20497852192402
92.05335947563465
91.9001669240068
91.74744816180865
91.59473162206484
91.44206825679628
91.28951362174382
91.13712998372634
90.98498952305339
90.83317940378838
90.68181041239716
72.92075472442589
72.92075472442589
72.92075472442589
72.92075472442589
72.92075472442589
72.92075472442589
72.92075472442589
72.92075472442589
72.92075472442589
72.92075472442589
69.15358621117306
69.14439432830218
69.13506825244149
69.12561848943447
69.11605284812566
69.10637714144569
69.09659559418533
69.0867110873246
69.07672530499838
94.67172464003639
94.53911413159065
94.40804477446507
94.2785343013059
94.15061213153369
94.02431951844687
93.89970973596347
93.77684818201925
93.65581214984296
93.53668978012657
93.41957723071732
93.30457227091159
93.19176209472847
93.08120553177027
92.97272652162295
92.86448943772547
92.75649183201799
92.64873009196128
92.54119886544028
92.43389019022469
92.32679211991267
92.2198863890899
72.92075472442589
72.92075472442589
72.92075472442589
72.92075472442589
72.92075472442589
72.92075472442589
72.92075472442589
72.92075472442589
72.92075472442589
72.92075472442589
70.43358798138172
70.420528988312
70.40784706572623
70.39553827816897
70.38359958018457
70.37202862550505
70.3608236555468
70.34998343228773
70.33950719774143
95.2716638709918
95.13880413559721
95.00673170850399
94.87543994560717
94.74491756097406
94.61514846126263
94.48611151725733
94.35778030363043
94.23012287173601
94.103101685006
93.97667397698517
93.85079302081395
93.72541092228836
93.60048292889311
93.47674782359947
93.35309879260369
93.22953344104718
93.10604964816682
92.98264572083043
92.85932062674881
92.73607436338884
92.6129085855465
72.92075472442589
72.92075472442589
72.92075472442589
72.92075472442589
72.92075472442589
72.92075472442589
72.92075472442589
72.92075472442589
72.92075472442589
72.92075472442589
70.44970884298584
70.43917695662273
70.42867264995358
70.41819745882613
70.40775260024641
70.39733902465953
70.38695744672218
70.37660836396162
70.3662920681078
95.58814003497586
95.45530918133191
95.3231958515803
95.19180206664427
95.06113115200625
94.93118782446946
94.80197831394311
94.6735105131292
94.54579413918741
94.41884087408796
94.29266441489477
94.16728030243024
94.04270536054095
93.91895673928198
93.79661407191183
93.67439716158293
93.5523072791881
93.43034563511824
93.30851333912419
93.18681133870555
93.06524032094133
92.94380054469916
72.92075472442589
72.92075472442589
72.92075472442589
72.92075472442589
72.92075472442589
72.92075472442589
72.92075472442589
72.92075472442589
72.92075472442589
72.92075472442589
70.44959054629618
70.43841826161554
70.42736365742402
70.41642616808824
70.405605334044
70.39490078735388
70.3843122431201
70.37383949422578
70.36348240811573
95.76633461257434
95.63350188422719
95.50130867079339
95.36975450293424
95.23883848770241
95.1085592731444
94.97891499811601
94.84990322866682
94.72152088457123
94.5937641641611
94.46662848516763
94.34010847641511
94.21419806567957
94.08889066709024
93.96487170856729
93.84095610401967
93.71714328994167
93.59343271399524
93.46982384528788
93.34631619043448
93.22290931946537
93.09960291047382
72.92075472442589
72.92075472442589
72.92075472442589
72.92075472442589
72.92075472442589
72.92075472442589
72.92075472442589
72.92075472442589
72.92075472442589
72.92075472442589
70.44959160235236
70.43858660941781
70.42767535327964
70.41685799420496
70.40613465846877
70.39550544237376
70.38497041466997
70.37452961805411
70.36418307009583
95.86155771502371
95.72872371405626
95.59648766587608
95.46484978910773
95.33381037429588
95.20336979674347
95.07352853487171
94.944287193955
94.81564653454659
94.68760750372722
94.56017126475459
94.433339216029
94.30711298730171
94.18149441203826
94.05717253389278
93.9329559226618
93.80884475946452
93.68483922356009
93.56093948977093
93.4371457243425
93.31345807814152
93.18987667478963
72.92075472442589
72.92075472442589
72.92075472442589
72.92075472442589
72.92075472442589
72.92075472442589
72.92075472442589
72.92075472442589
72.92075472442589
72.92075472442589
70.44960682600534
70.43855798694287
70.42760926825441
70.4167605927267
70.40601189369838
70.39536311392823
70.38481420490439
70.37436512641057
70.36401584625537
95.90813030121836
95.77529660975792
95.64304224439478
95.51136726316493
95.38027168027634
95.24975546152143
95.11981851765904
94.99046069571793
94.8616817683001
94.73348142127594
94.60585924097519
94.47881470331288
94.35234716818002
94.22645587936941
94.10184535640258
93.97733701120431
93.85293077469535
93.72862657757692
93.60442435099063
93.48032402762675
93.35632554359535
93.23242884174961
72.92075472442589
72.92075472442589
72.92075472442589
72.92075472442589
72.92075472442589
72.92075472442589
72.92075472442589
72.92075472442589
72.92075472442589
72.92075472442589
70.44959911852628
70.43856198596548
70.42762323925135
70.4167828777812
70.40604089739826
70.39539729073334
70.38485204741694
70.37440515421424
70.36405659511061
95.92203036637025
95.78919641556321
95.65693556010733
95.5252479086792
95.39413356539626
95.26359263246181
95.13362521400754
95.0042314211972
94.87541137860602
94.74716523174557
94.61949315525756
94.49239536063591
94.3658721018811
94.23992367899457
94.11525615231382
93.99069089946701
93.86622796070759
93.74186737637261
93.61760918658788
93.49345343074923
93.3694001466208
93.24544936870618
72.92075472442589
72.92075472442589
72.92075472442589
72.92075472442589
72.92075472442589
72.92075472442589
72.92075472442589
72.92075472442589
72.92075472442589
72.92075472442589
70.4496026123669
70.43856165742297
70.4276196655554
70.41677660637995
70.40603245137129
70.39538717368413
70.38484074804097
70.37439315065986
70.36404435920824
95.90813030121805
95.77529660975759
95.64304224439442
95.5113672631645
95.38027168027574
95.24975546152059
95.11981851765803
94.9904606957168
94.86168176829887
94.73348142127449
94.60585924097347
94.47881470331086
94.3523471681777
94.2264558793668
94.10184535639964
93.97733701120107
93.85293077469188
93.7286265775732
93.60442435098669
93.48032402762267
93.35632554359121
93.2324288417454
72.92075472442589
72.92075472442589
72.92075472442589
72.92075472442589
72.92075472442589
72.92075472442589
72.92075472442589
72.92075472442589
72.92075472442589
72.92075472442589
70.44959911851954
70.43856198595873
70.42762323924458
70.41678287777442
70.40604089739145
70.39539729072648
70.38485204741004
70.37440515420734
70.3640565951037
95.861557715028
95.72872371406054
95.59648766588039
95.4648497891121
95.33381037430033
95.20336979674804
95.0735285348763
94.94428719395955
94.81564653455108
94.68760750373174
94.5601712647592
94.43333921603373
94.30711298730654
94.18149441204328
94.05717253389797
93.93295592266715
93.80884475947
93.68483922356577
93.56093948977671
93.43714572434834
93.31345807814732
93.18987667479541
72.92075472442589
72.92075472442589
72.92075472442589
72.92075472442589
72.92075472442589
72.92075472442589
72.92075472442589
72.92075472442589
72.92075472442589
72.92075472442589
70.4496068259841
70.43855798692154
70.42760926823296
70.4167605927051
70.40601189367666
70.39536311390644
70.38481420488253
70.37436512638868
70.36401584623347
95.7663346125811
95.63350188423398
95.50130867080027
95.36975450294118
95.23883848770932
95.10855927315117
94.97891499812276
94.84990322867354
94.72152088457788
94.59376416416758
94.46662848517383
94.34010847642098
94.21419806568511
94.08889066709541
93.96487170857215
93.8409561040243
93.71714328994615
93.59343271399958
93.46982384529211
93.34631619043864
93.22290931946952
93.09960291047794
72.92075472442589
72.92075472442589
72.92075472442589
72.92075472442589
72.92075472442589
72.92075472442589
72.92075472442589
72.92075472442589
72.92075472442589
72.92075472442589
70.44959160235078
70.43858660941623
70.42767535327809
70.41685799420345
70.40613465846728
70.39550544237233
70.38497041466854
70.37452961805265
70.36418307009438
95.58814003499175
95.45530918134777
95.32319585159614
95.19180206666007
95.06113115202201
94.9311878244852
94.80197831395881
94.67351051314485
94.54579413920304
94.41884087410362
94.2926644149105
94.16728030244604
94.04270536055678
93.91895673929784
93.79661407192768
93.67439716159876
93.55230727920384
93.4303456351338
93.30851333913967
93.18681133872091
93.06524032095649
92.94380054471418
72.92075472442589
72.92075472442589
72.92075472442589
72.92075472442589
72.92075472442589
72.92075472442589
72.92075472442589
72.92075472442589
72.92075472442589
72.92075472442589
70.44959054629284
70.43841826161217
70.42736365742063
70.41642616808484
70.40560533404059
70.39490078735045
70.38431224311668
70.37383949422237
70.3634824081123
95.2716638710118
95.13880413561722
95.00673170852407
94.87543994562733
94.74491756099432
94.615148461283
94.4861115172778
94.35778030365101
94.23012287175668
94.10310168502673
93.97667397700596
93.85079302083484
93.72541092230942
93.60048292891437
93.47674782362094
93.35309879262535
93.22953344106904
93.1060496481889
92.98264572085264
92.85932062677115
92.73607436341125
92.61290858556893
72.92075472442589
72.92075472442589
72.92075472442589
72.92075472442589
72.92075472442589
72.92075472442589
72.92075472442589
72.92075472442589
72.92075472442589
72.92075472442589
70.44970884297193
70.43917695660872
70.42867264993951
70.41819745881199
70.40775260023223
70.39733902464535
70.38695744670801
70.3766083639475
70.36629206809367
94.67172464004125
94.53911413159553
94.40804477446996
94.27853430131081
94.15061213153861
94.02431951845173
93.89970973596824
93.77684818202397
93.65581214984766
93.53668978013127
93.41957723072206
93.30457227091632
93.19176209473322
93.081205531775
92.97272652162764
92.86448943773011
92.75649183202258
92.64873009196575
92.54119886544471
92.43389019022906
92.32679211991692
92.21988638909406
72.92075472442589
72.92075472442589
72.92075472442589
72.92075472442589
72.92075472442589
72.92075472442589
72.92075472442589
72.92075472442589
72.92075472442589
72.92075472442589
70.43358798138296
70.42052898831322
70.40784706572744
70.39553827817019
70.38359958018576
70.37202862550619
70.36082365554786
70.34998343228875
70.33950719774244
93.76234716967949
93.62811749058268
93.49255221080288
93.35563030188449
93.21731724249936
93.07756540498534
92.93631466767859
92.79349371283254
92.64902293209911
92.50282072996158
92.35481674678364
92.20497852192487
92.05335947563555
91.90016692400772
91.74744816180963
91.59473162206591
91.44206825679743
91.28951362174513
91.13712998372769
90.9849895230548
90.83317940378984
90.68181041239865
72.92075472442589
72.92075472442589
72.92075472442589
72.92075472442589
72.92075472442589
72.92075472442589
72.92075472442589
72.92075472442589
72.92075472442589
72.92075472442589
69.15358621116252
69.14439432829172
69.1350682524311
69.12561848942411
69.11605284811536
69.10637714143543
69.09659559417514
69.08671108731443
69.0767253049882
93.75663451526562
93.62240006821156
93.48682227461774
93.34987873046494
93.21153305824777
93.07173497811867
92.93041988137571
92.7875081259015
92.64290408328465
92.49649490335688
92.34814875845694
92.19771798656184
92.04508477927777
91.89028234658278
91.73558174242623
91.58079316819243
91.4259303878825
91.27099345195803
91.1159605350727
90.96077390684613
90.80530698854956
90.64928396452804
90.49159785049633
70.45028025118474
70.40111124867822
70.39582994935779
70.39781132837977
70.39714836585898
70.3973042803455
70.39768255865359
70.39177829203007
69.15329817006499
69.14370555082621
69.13418303776065
69.12462155648502
69.11500045912601
69.10530989235818
69.09554537238313
69.08570478383888
69.07578714261923
69.06579202951814
93.75107735799675
93.61683881260902
93.4812503954381
93.34428826028912
93.20591417178713
93.06607523757914
92.9247024203046
92.78170783281509
92.63697992787003
92.49037473404867
92.34169919380925
92.19068801502894
92.03703939918623
91.88060402824811
91.72389855416371
91.56702210453274
91.40995750277996
91.25265637873545
91.09502396973518
90.9368964829933
90.77799742386917
90.61781786519907
90.45555961218267
70.4685365453444
70.38246156392668
70.38680882773149
70.38624619710365
70.38629133006954
70.38611756828055
70.38713028186909
70.37893772855746
69.1438540405468
69.13393025234183
69.12411321654342
69.11433419999514
69.10454968138306
69.09473791212855
69.08488633949909
69.07498751650282
69.06503706915615
69.05503269023848
93.74567616564103
93.61143425345445
93.47583723170615
93.3388596988569
93.20046159313294
93.06058753523388
92.91916427113023
92.7760960430901
92.63125607139102
92.48447051108666
92.33548767460651
92.18392489239729
92.02927636921254
91.87119344212296
91.7124780774575
91.55352646284936
91.39430389291223
91.23472714116201
91.0746471284228
90.91382972738931
90.75192519408331
90.58843828739742
90.42272664322013
70.48286292016037
70.36497552782778
70.37760148600528
70.37485714166705
70.37550796178662
70.37505229561938
70.37660995117528
70.36644548421066
69.13431067417604
69.12415073281247
69.11411586065081
69.10415375174371
69.09422519201362
69.08430358798822
69.07437181746869
69.06441882222806
69.0544377166844
69.0444247256315
93.7404312835796
93.60618681374562
93.47058334678275
93.3335937541478
93.19517622234402
93.05527309633014
92.913807265318
92.77067575576535