# vtk DataFile Version 2.0
Niestacjonarne zagadnienie cieplne - ogrzewanie wody w garnku stalowym
ASCII
DATASET UNSTRUCTURED_GRID
POINTS 1353 float
0.0 0.0 0.0
0.0 3.846153846153846E-4 0.0
0.0 7.692307692307692E-4 0.0
0.0 0.0011538461538461537 0.0
0.0 0.0015384615384615385 0.0
0.0 0.0019230769230769232 0.0
0.0 0.0023076923076923075 0.0
0.0 0.002692307692307692 0.0
0.0 0.003076923076923077 0.0
0.0 0.0034615384615384616 0.0
0.0 0.0038461538461538464 0.0
0.0 0.004230769230769231 0.0
0.0 0.004615384615384615 0.0
0.0 0.005 0.0
0.0 0.005111111111111111 0.0
0.0 0.005222222222222223 0.0
0.0 0.005333333333333333 0.0
0.0 0.0054444444444444445 0.0
0.0 0.005555555555555556 0.0
0.0 0.005666666666666667 0.0
0.0 0.0057777777777777775 0.0
0.0 0.005888888888888889 0.0
0.0 0.006 0.0
0.0 0.01711111111111111 0.0
0.0 0.028222222222222225 0.0
0.0 0.03933333333333333 0.0
0.0 0.050444444444444445 0.0
0.0 0.06155555555555556 0.0
0.0 0.07266666666666667 0.0
0.0 0.08377777777777778 0.0
0.0 0.0948888888888889 0.0
0.0 0.10600000000000001 0.0
0.0 0.10611111111111113 0.0
0.0 0.10622222222222223 0.0
0.0 0.10633333333333335 0.0
0.0 0.10644444444444445 0.0
0.0 0.10655555555555557 0.0
0.0 0.10666666666666667 0.0
0.0 0.10677777777777779 0.0
0.0 0.1068888888888889 0.0
0.0 0.10700000000000001 0.0
1.1111111111111112E-4 0.0 0.0
1.1111111111111112E-4 3.846153846153846E-4 0.0
1.1111111111111112E-4 7.692307692307692E-4 0.0
1.1111111111111112E-4 0.0011538461538461537 0.0
1.1111111111111112E-4 0.0015384615384615385 0.0
1.1111111111111112E-4 0.0019230769230769232 0.0
1.1111111111111112E-4 0.0023076923076923075 0.0
1.1111111111111112E-4 0.002692307692307692 0.0
1.1111111111111112E-4 0.003076923076923077 0.0
1.1111111111111112E-4 0.0034615384615384616 0.0
1.1111111111111112E-4 0.0038461538461538464 0.0
1.1111111111111112E-4 0.004230769230769231 0.0
1.1111111111111112E-4 0.004615384615384615 0.0
1.1111111111111112E-4 0.005 0.0
1.1111111111111112E-4 0.005111111111111111 0.0
1.1111111111111112E-4 0.005222222222222223 0.0
1.1111111111111112E-4 0.005333333333333333 0.0
1.1111111111111112E-4 0.0054444444444444445 0.0
1.1111111111111112E-4 0.005555555555555556 0.0
1.1111111111111112E-4 0.005666666666666667 0.0
1.1111111111111112E-4 0.0057777777777777775 0.0
1.1111111111111112E-4 0.005888888888888889 0.0
1.1111111111111112E-4 0.006 0.0
1.1111111111111112E-4 0.01711111111111111 0.0
1.1111111111111112E-4 0.028222222222222225 0.0
1.1111111111111112E-4 0.03933333333333333 0.0
1.1111111111111112E-4 0.050444444444444445 0.0
1.1111111111111112E-4 0.06155555555555556 0.0
1.1111111111111112E-4 0.07266666666666667 0.0
1.1111111111111112E-4 0.08377777777777778 0.0
1.1111111111111112E-4 0.0948888888888889 0.0
1.1111111111111112E-4 0.10600000000000001 0.0
1.1111111111111112E-4 0.10611111111111113 0.0
1.1111111111111112E-4 0.10622222222222223 0.0
1.1111111111111112E-4 0.10633333333333335 0.0
1.1111111111111112E-4 0.10644444444444445 0.0
1.1111111111111112E-4 0.10655555555555557 0.0
1.1111111111111112E-4 0.10666666666666667 0.0
1.1111111111111112E-4 0.10677777777777779 0.0
1.1111111111111112E-4 0.1068888888888889 0.0
1.1111111111111112E-4 0.10700000000000001 0.0
2.2222222222222223E-4 0.0 0.0
2.2222222222222223E-4 3.846153846153846E-4 0.0
2.2222222222222223E-4 7.692307692307692E-4 0.0
2.2222222222222223E-4 0.0011538461538461537 0.0
2.2222222222222223E-4 0.0015384615384615385 0.0
2.2222222222222223E-4 0.0019230769230769232 0.0
2.2222222222222223E-4 0.0023076923076923075 0.0
2.2222222222222223E-4 0.002692307692307692 0.0
2.2222222222222223E-4 0.003076923076923077 0.0
2.2222222222222223E-4 0.0034615384615384616 0.0
2.2222222222222223E-4 0.0038461538461538464 0.0
2.2222222222222223E-4 0.004230769230769231 0.0
2.2222222222222223E-4 0.004615384615384615 0.0
2.2222222222222223E-4 0.005 0.0
2.2222222222222223E-4 0.005111111111111111 0.0
2.2222222222222223E-4 0.005222222222222223 0.0
2.2222222222222223E-4 0.005333333333333333 0.0
2.2222222222222223E-4 0.0054444444444444445 0.0
2.2222222222222223E-4 0.005555555555555556 0.0
2.2222222222222223E-4 0.005666666666666667 0.0
2.2222222222222223E-4 0.0057777777777777775 0.0
2.2222222222222223E-4 0.005888888888888889 0.0
2.2222222222222223E-4 0.006 0.0
2.2222222222222223E-4 0.01711111111111111 0.0
2.2222222222222223E-4 0.028222222222222225 0.0
2.2222222222222223E-4 0.03933333333333333 0.0
2.2222222222222223E-4 0.050444444444444445 0.0
2.2222222222222223E-4 0.06155555555555556 0.0
2.2222222222222223E-4 0.07266666666666667 0.0
2.2222222222222223E-4 0.08377777777777778 0.0
2.2222222222222223E-4 0.0948888888888889 0.0
2.2222222222222223E-4 0.10600000000000001 0.0
2.2222222222222223E-4 0.10611111111111113 0.0
2.2222222222222223E-4 0.10622222222222223 0.0
2.2222222222222223E-4 0.10633333333333335 0.0
2.2222222222222223E-4 0.10644444444444445 0.0
2.2222222222222223E-4 0.10655555555555557 0.0
2.2222222222222223E-4 0.10666666666666667 0.0
2.2222222222222223E-4 0.10677777777777779 0.0
2.2222222222222223E-4 0.1068888888888889 0.0
2.2222222222222223E-4 0.10700000000000001 0.0
3.333333333333334E-4 0.0 0.0
3.333333333333334E-4 3.846153846153846E-4 0.0
3.333333333333334E-4 7.692307692307692E-4 0.0
3.333333333333334E-4 0.0011538461538461537 0.0
3.333333333333334E-4 0.0015384615384615385 0.0
3.333333333333334E-4 0.0019230769230769232 0.0
3.333333333333334E-4 0.0023076923076923075 0.0
3.333333333333334E-4 0.002692307692307692 0.0
3.333333333333334E-4 0.003076923076923077 0.0
3.333333333333334E-4 0.0034615384615384616 0.0
3.333333333333334E-4 0.0038461538461538464 0.0
3.333333333333334E-4 0.004230769230769231 0.0
3.333333333333334E-4 0.004615384615384615 0.0
3.333333333333334E-4 0.005 0.0
3.333333333333334E-4 0.005111111111111111 0.0
3.333333333333334E-4 0.005222222222222223 0.0
3.333333333333334E-4 0.005333333333333333 0.0
3.333333333333334E-4 0.0054444444444444445 0.0
3.333333333333334E-4 0.005555555555555556 0.0
3.333333333333334E-4 0.005666666666666667 0.0
3.333333333333334E-4 0.0057777777777777775 0.0
3.333333333333334E-4 0.005888888888888889 0.0
3.333333333333334E-4 0.006 0.0
3.333333333333334E-4 0.01711111111111111 0.0
3.333333333333334E-4 0.028222222222222225 0.0
3.333333333333334E-4 0.03933333333333333 0.0
3.333333333333334E-4 0.050444444444444445 0.0
3.333333333333334E-4 0.06155555555555556 0.0
3.333333333333334E-4 0.07266666666666667 0.0
3.333333333333334E-4 0.08377777777777778 0.0
3.333333333333334E-4 0.0948888888888889 0.0
3.333333333333334E-4 0.10600000000000001 0.0
3.333333333333334E-4 0.10611111111111113 0.0
3.333333333333334E-4 0.10622222222222223 0.0
3.333333333333334E-4 0.10633333333333335 0.0
3.333333333333334E-4 0.10644444444444445 0.0
3.333333333333334E-4 0.10655555555555557 0.0
3.333333333333334E-4 0.10666666666666667 0.0
3.333333333333334E-4 0.10677777777777779 0.0
3.333333333333334E-4 0.1068888888888889 0.0
3.333333333333334E-4 0.10700000000000001 0.0
4.4444444444444447E-4 0.0 0.0
4.4444444444444447E-4 3.846153846153846E-4 0.0
4.4444444444444447E-4 7.692307692307692E-4 0.0
4.4444444444444447E-4 0.0011538461538461537 0.0
4.4444444444444447E-4 0.0015384615384615385 0.0
4.4444444444444447E-4 0.0019230769230769232 0.0
4.4444444444444447E-4 0.0023076923076923075 0.0
4.4444444444444447E-4 0.002692307692307692 0.0
4.4444444444444447E-4 0.003076923076923077 0.0
4.4444444444444447E-4 0.0034615384615384616 0.0
4.4444444444444447E-4 0.0038461538461538464 0.0
4.4444444444444447E-4 0.004230769230769231 0.0
4.4444444444444447E-4 0.004615384615384615 0.0
4.4444444444444447E-4 0.005 0.0
4.4444444444444447E-4 0.005111111111111111 0.0
4.4444444444444447E-4 0.005222222222222223 0.0
4.4444444444444447E-4 0.005333333333333333 0.0
4.4444444444444447E-4 0.0054444444444444445 0.0
4.4444444444444447E-4 0.005555555555555556 0.0
4.4444444444444447E-4 0.005666666666666667 0.0
4.4444444444444447E-4 0.0057777777777777775 0.0
4.4444444444444447E-4 0.005888888888888889 0.0
4.4444444444444447E-4 0.006 0.0
4.4444444444444447E-4 0.01711111111111111 0.0
4.4444444444444447E-4 0.028222222222222225 0.0
4.4444444444444447E-4 0.03933333333333333 0.0
4.4444444444444447E-4 0.050444444444444445 0.0
4.4444444444444447E-4 0.06155555555555556 0.0
4.4444444444444447E-4 0.07266666666666667 0.0
4.4444444444444447E-4 0.08377777777777778 0.0
4.4444444444444447E-4 0.0948888888888889 0.0
4.4444444444444447E-4 0.10600000000000001 0.0
4.4444444444444447E-4 0.10611111111111113 0.0
4.4444444444444447E-4 0.10622222222222223 0.0
4.4444444444444447E-4 0.10633333333333335 0.0
4.4444444444444447E-4 0.10644444444444445 0.0
4.4444444444444447E-4 0.10655555555555557 0.0
4.4444444444444447E-4 0.10666666666666667 0.0
4.4444444444444447E-4 0.10677777777777779 0.0
4.4444444444444447E-4 0.1068888888888889 0.0
4.4444444444444447E-4 0.10700000000000001 0.0
5.555555555555556E-4 0.0 0.0
5.555555555555556E-4 3.846153846153846E-4 0.0
5.555555555555556E-4 7.692307692307692E-4 0.0
5.555555555555556E-4 0.0011538461538461537 0.0
5.555555555555556E-4 0.0015384615384615385 0.0
5.555555555555556E-4 0.0019230769230769232 0.0
5.555555555555556E-4 0.0023076923076923075 0.0
5.555555555555556E-4 0.002692307692307692 0.0
5.555555555555556E-4 0.003076923076923077 0.0
5.555555555555556E-4 0.0034615384615384616 0.0
5.555555555555556E-4 0.0038461538461538464 0.0
5.555555555555556E-4 0.004230769230769231 0.0
5.555555555555556E-4 0.004615384615384615 0.0
5.555555555555556E-4 0.005 0.0
5.555555555555556E-4 0.005111111111111111 0.0
5.555555555555556E-4 0.005222222222222223 0.0
5.555555555555556E-4 0.005333333333333333 0.0
5.555555555555556E-4 0.0054444444444444445 0.0
5.555555555555556E-4 0.005555555555555556 0.0
5.555555555555556E-4 0.005666666666666667 0.0
5.555555555555556E-4 0.0057777777777777775 0.0
5.555555555555556E-4 0.005888888888888889 0.0
5.555555555555556E-4 0.006 0.0
5.555555555555556E-4 0.01711111111111111 0.0
5.555555555555556E-4 0.028222222222222225 0.0
5.555555555555556E-4 0.03933333333333333 0.0
5.555555555555556E-4 0.050444444444444445 0.0
5.555555555555556E-4 0.06155555555555556 0.0
[...]
POINT_DATA 1353
SCALARS Temperatura float 1
LOOKUP_TABLE default
106.153991955428
106.02225266401192
105.88902328678589
105.75426439285783
105.6179270463451
105.479943907658
105.34022233817262
105.1986320326531
105.05498322103227
104.90897747713983
104.76013996190291
104.60753313218775
104.44982118174842
104.28022334565729
104.1002819310884
103.92900985918159
103.75988380473085
103.5916655015836
103.42351051506336
103.25478837527292
103.08495278477655
102.9134990217329
102.73994662742663
83.06499343666744
82.86256500887923
82.89727829728994
82.88871497303344
82.89101389219387
82.88964671870023
82.89334328966648
82.87408704619642
81.369501931804
81.35629337027548
81.34325228041014
81.33034882134363
81.31755492580292
81.30484550057831
81.29219929762371
81.27959946718616
81.26703385769859
81.25449514833608
106.1592006139458
106.0274556757519
105.89421975544319
105.75945487096791
105.62311216600557
105.48512461036374
105.34539996205461
105.20380902990318
105.0601626988508
104.9141704133233
104.7653443896518
104.61285099476484
104.4549845532413
104.28733441944101
104.11566071478515
103.945246495536
103.7766741135876
103.6087977940089
103.44091051315723
103.27242116156184
103.10280095818307
102.93155185976366
102.75819486960008
83.0760313404094
82.87595583056928
82.91005813786296
82.90165482243684
82.90390910726647
82.90256464329401
82.90621251339763
82.88713554080167
81.38199710872446
81.36880118892631
81.35577259712515
81.34288072852345
81.33009689915397
81.31739557855732
81.30475525061102
81.29215892816018
81.27959440492651
81.26705434589154
106.16457125418978
106.03282377386606
105.8995842768449
105.7648173996367
105.62847484662291
105.49049039870361
105.35077320711794
105.20919659184631
105.06557677160596
104.9196322991005
104.77089765825079
104.6185860010745
104.46103185810797
104.29564817145828
104.1277396578701
103.96007057872094
103.79292002772101
103.62606756090194
103.45901902476915
103.29128288129029
103.12237295194417
102.95180734616113
102.77910904215402
83.08334749447731
82.89041926578608
82.9226722451241
82.91475321834572
82.91687239576494
82.91559675248327
82.91909682412859
82.90056596202669
81.39438196170816
81.38123024081976
81.36824526609334
81.35539407159551
81.34264610350145
81.32997454628789
81.31735713411457
81.30477652787732
81.29222040696119
81.27968142511456
106.17010489880951
106.03835684250869
105.90511672992338
105.77035180455276
105.63401484834345
105.4960409430937
105.35634148287959
105.21479398018847
105.07122301975679
104.92536260119269
104.77678395108418
104.62475289562745
104.46786642248033
104.304588740577
104.13944496617457
103.97419195283317
103.80895546767938
103.6436250188435
103.47790728567877
103.31140874211457
103.14369117612712
102.97428825946359
102.8027184286882
83.08693032219168
82.90595999581407
82.93511898133032
82.92801073989271
82.92990356131202
82.9287432406449
82.93199588126052
82.9143791718699
81.40665445061462
81.39358122039539
81.38067343163696
81.36789389405408
81.35520884307046
81.34258940347115
81.33001224093796
81.31745962653102
81.30491920659703
81.29238371255347
106.17580203623832
106.04405481770023
105.91081688460747
105.77605779079803
105.63973177375253
105.5017756723633
105.36210389883679
105.22059967031066
105.07709861494604
104.93135659876184
104.78298956513697
104.63134730118858
104.47533855915356
104.31402533400473
104.15127342095428
103.98829068169253
103.82510962649567
103.66163709704334
103.49765286405305
103.33283390325562
103.16677866202971
102.99902548216419
102.82907181446134
83.08676093295912
82.92258570889719
82.94739562909163
82.9414283342374
82.94300226556402
82.94200441891874
82.94490910649955
82.92857658529606
81.41881108018217
81.40585565897416
81.39306302417621
81.38038937409499
81.36779628180808
81.3552522599293
81.34273295498151
81.33022055778575
81.31770301291795
81.30517335918427
106.18166283021422
106.04991757206025
105.91668442154983
105.78193494153217
105.64562507020149
105.50769379976992
105.36805923738379
105.22661156655295
105.08319989492006
104.9376069440798
104.7895010913255
104.63834213439324
104.48333153607716
104.32389577916942
104.16339034979966
104.00262840264129
103.841600107109
103.68021712648644
103.51829812627821
103.35556446468495
103.19163876437912
103.0260473721457
102.858238258142
83.08281289851432
82.94030716684024
82.959498370952
82.95500732318591
82.95616802512511
82.95538071976944
82.95783566962112
82.94316022087946
81.43084671586523
81.41805667223775
81.40542407937262
81.39289521199359
81.38042552298297
81.36798098831383
81.3555370343886
81.34307666592812
81.33058880409706
81.31806720110532
106.18768721866464
106.05594487445218
105.92271893018756
105.78798272154404
105.6516940368908
105.51379433981481
105.37420597817756
105.23282710587229
105.08952229065946
104.94410479594656
104.79630257556994
104.64570003440747
104.4917555577698
104.33414873896668
104.17583576744678
104.01729354242926
103.85850259922066
103.69939066079628
103.53981481785617
103.3795429712788
103.21822451308238
103.05536166177782
102.89030874818535
83.07505178519627
82.95913833964958
82.97142224968809
82.96874941550367
82.96940020617238
82.96887270453578
82.97077446495861
82.95813278481654
81.4427542773486
81.4301905934918
81.41777340211037
81.40543409901126
81.39312126123528
81.38080000406894
81.36844783129659
81.35605020428903
81.34359806608319
81.33108645039825
106.19387496440083
106.06213637843963
105.92891990367568
105.79420048140287
105.65793783417081
105.52007612623404
105.38054234079668
105.23924332364544
105.09606049611087
104.95084020076767
104.80337531374555
104.65338031344186
104.50053772069586
104.34473028928976
104.18858921779162
104.03227871749907
103.87579208476966
103.71908906819067
103.5620802826448
103.40460477955266
103.24638697058695
103.0869180817329
102.92539956091238
83.0634342228093
82.97909666716924
82.98316109345544
82.98265672929405
82.98269801521151
82.98248107590294
82.98372407248505
82.97349781081647
81.45452422614864
81.44227093651044
81.43013994221114
81.41804113452683
81.40591763884112
81.39374083988604
81.38149421357589
81.3691679456701
81.35675626627777
81.34425613059176
106.20022568393675
106.06849162177743
105.93528673551377
105.80058746166432
105.66435549404774
105.52653783366124
105.3870663304863
105.24585693362192
105.10280867441546
104.9578023488033
104.81069863514517
104.66134204465814
104.50961503419232
104.35558186094829
104.20159532667083
104.04751842585448
103.89337171479153
103.73916090082658
103.58486844897534
103.43043959149244
103.27574963238263
103.12052353997338
102.96365904887087
83.04790604585946
83.00020357239917
82.99470737223287
82.99673183367807
82.99606048265898
82.99620669923841
82.99668269107028
82.98925990144687
81.46614367793629
81.4543259838628
81.4425809424867
81.43076794928115
81.41885929457592
81.40684193121675
81.39470989632463
81.38246035622842
81.37009197928582
81.35760419257478
106.20673886598432
106.07501003005768
105.94181871842004
105.80714279722247
105.6709459316126
105.53317800162313
105.39377578604164
105.25266442204178
105.10976065896908
104.96497988822547
104.81825084944406
104.66954520220318
104.51893027564991
104.36664152252263
104.21477882339641
104.06291271137955
103.91109778120625
103.75939301472381
103.60786381309491
103.45658515903705
103.30564667977434
103.15516130778283
85.90628613172987
85.90628613172987
85.90628613172987
85.90628613172987
85.90628613172987
85.90628613172987
85.90628613172987
85.90628613172987
85.90628613172987
85.90628613172987
81.46649698732719
81.45518685536742
81.44368330555406
81.43199998685479
81.42014702726009
81.40813195902756
81.39596025326479
81.38363563996026
81.3711603004029
107.20497360683424
107.07496274814356
106.94652787497677
106.81968772032742
106.69447337245194
106.57092842813927
106.44910917989176
106.32908470104336
106.21093655375682
106.09475758046116
105.98064871136246
105.86871181046298
105.75903622782833
105.65167980728978
105.5464086564248
105.4413798015589
105.33659044000183
105.23203666476634
105.12771290893835
105.02361108531765
104.91971921383511
104.81601908040625
85.90628613172987
85.90628613172987
85.90628613172987
85.90628613172987
85.90628613172987
85.90628613172987
85.90628613172987
85.90628613172987
85.90628613172987
85.90628613172987
83.04047171743173
83.0244411476187
83.00884300917129
82.99367228291807
82.97892509797047
82.96459848001398
82.95069020520047
82.93719871228232
82.92412304959099
107.86069945618546
107.73042453262786
107.60091861583578
107.4721746559501
107.34418068674222
107.21691965108033
107.09036916203331
106.96450123413554
106.83928205664834
106.71467195258649
106.5906258119135
106.46709453844623
106.34402815912821
106.22138043920972
106.09988683759714
105.97847177230037
105.85713276366184
105.73586758826512
105.6146744272465
105.49355209674682
105.37250041637
105.25152083835755
85.90628613172987
85.90628613172987
85.90628613172987
85.90628613172987
85.90628613172987
85.90628613172987
85.90628613172987
85.90628613172987
85.90628613172987
85.90628613172987
83.06045735525187
83.04752622356105
83.03459837553388
83.02167575399511
83.00875989548834
82.99585199917799
82.98295296712773
82.97006342869214
82.95718375531861
108.2073148478689
108.07707038486312
107.94751604831785
107.81865395791198
107.69048761085354
107.5630219734984
107.4362636094406
107.31022083609666
107.18490389203478
107.06032507798328
106.93649879510572
106.81344133515564
106.6911702443451
106.56970329315033
106.44961124714933
106.32963876323417
106.20978716148882
106.09005770686116
105.97045157047356
105.85096976880732
105.73161306571934
105.61238180429456
85.90628613172987
85.90628613172987
85.90628613172987
85.90628613172987
85.90628613172987
85.90628613172987
85.90628613172987
85.90628613172987
85.90628613172987
85.90628613172987
83.0603173434956
83.04660103873172
83.03299862227634
83.0195093923511
83.00613278138313
82.99286833699917
82.97971571080576
82.96667465152986
82.95374500082471
108.4024516599024
108.2722052242017
108.14256368084894
108.01352651692268
107.8850927702345
107.75726099193314
107.63002919362457
107.50339478056394
107.37735447495386
107.25190423848565
107.12703921387119
107.00275372395107
106.87904137660058
106.755895268609
106.63399926840967
106.51219905700533
106.39049404040064
106.26888363407637
106.14736727285478
106.0259444267217
105.90461462665583
105.78337750934067
85.90628613172987
85.90628613172987
85.90628613172987
85.90628613172987
85.90628613172987
85.90628613172987
85.90628613172987
85.90628613172987
85.90628613172987
85.90628613172987
83.06031865530828
83.04680746921562
83.0333807778134
83.02003878752947
83.00678166202069
82.99360952745273
82.98052247565425
82.96752056606711
82.95460382694931
108.50679276574502
108.37654496309968
108.24685655746433
108.11772776381781
107.98915887241111
107.86115026233327
107.73370242087515
107.60681596850226
107.48049168864327
107.35473056017725
107.22953378765975
107.10490281919623
106.98083933908362
106.85734523683051
106.73510911116612
106.6129706245674
106.49092996348637
106.3689873130245
106.24714285447679
106.12539676126651
106.00374919217599
105.88220027947482
85.90628613172987
85.90628613172987
85.90628613172987
85.90628613172987
85.90628613172987
85.90628613172987
85.90628613172987
85.90628613172987
85.90628613172987
85.90628613172987
83.0603373636327
83.04677241685663
83.03329980140626
83.01991942766591
83.00663121927795
82.99343511165976
82.98033105110572
82.96731899422471
82.95439890758999
108.55783739503964
108.4275899162409
108.29788139059305
108.16871186374205
108.04008133461858
107.91198975059159
107.78443700048737
107.65742290543332
107.53094720762958
107.40500955750487
107.27960950050796
107.1547464662575
107.03041976361318
106.90662858117787
106.7840782621303
106.66162226596768
106.53926051734385
106.41699294051354
106.29481945995389
106.17274000144722
106.05075449393857
105.92886287285577
85.90628613172987
85.90628613172987
85.90628613172987
85.90628613172987
85.90628613172987
85.90628613172987
85.90628613172987
85.90628613172987
85.90628613172987
85.90628613172987
83.06032792255355
83.04677732948167
83.03331693837447
83.019946754874
83.0066667801978
82.99347701158544
82.98037744257321
82.96736806316868
82.95444885996064
108.57307546680656
108.44282771152471
108.31311209390411
108.1839287131506
108.05527766332045
107.92715903611524
107.79957292493701
107.67251943026555
107.54599866636318
107.4200107691476
107.29455590468584
107.16963427702952
107.04524613367866
106.92139176895974
106.79877828607293
106.67625920387667
106.5538345617919
106.43150439941641
106.30926875625107
106.18712767119574
106.06508118165652
105.9431293219206
85.90628613172987
85.90628613172987
85.90628613172987
85.90628613172987
85.90628613172987
85.90628613172987
85.90628613172987
85.90628613172987
85.90628613172987
85.90628613172987
83.06033221013023
83.04677693028232
83.03331256102605
83.01993907104728
83.00665643137391
82.99346461514284
82.98036359745468
82.96735335528076
82.95443386740389
108.55783739503943
108.42758991624066
108.29788139059276
108.16871186374168
108.04008133461801
107.91198975059076
107.78443700048635
107.65742290543218
107.53094720762833
107.40500955750338
107.27960950050615
107.15474646625538
107.0304197636107
106.90662858117501
106.78407826212708
106.66162226596413
106.53926051734003
106.41699294050943
106.29481945994954
106.17274000144272
106.050754493934
105.9288628728511
85.90628613172987
85.90628613172987
85.90628613172987
85.90628613172987
85.90628613172987
85.90628613172987
85.90628613172987
85.90628613172987
85.90628613172987
85.90628613172987
83.0603279225455
83.04677732947361
83.0333169383664
83.01994675486593
83.00666678018969
82.99347701157727
82.980377442565
82.96736806316048
82.95444885995242
108.50679276574982
108.37654496310451
108.24685655746917
108.11772776382271
107.98915887241613
107.8611502623384
107.7337024208803
107.60681596850738
107.48049168864831
107.35473056018232
107.22953378766495
107.10490281920157
106.98083933908909
106.85734523683621
106.73510911117202
106.61297062457346
106.49092996349259
106.36898731303096
106.24714285448336
106.12539676127315
106.00374919218258
105.8822002794814
85.90628613172987
85.90628613172987
85.90628613172987
85.90628613172987
85.90628613172987
85.90628613172987
85.90628613172987
85.90628613172987
85.90628613172987
85.90628613172987
83.06033736360764
83.04677241683144
83.03329980138095
83.01991942764046
83.00663121925236
82.99343511163406
82.98033105107992
82.96731899419888
82.95439890756415
108.40245165991026
108.27220522420957
108.14256368085692
108.01352651693072
107.88509277024248
107.75726099194097
107.63002919363235
107.50339478057168
107.37735447496152
107.25190423849308
107.12703921387828
107.00275372395777
106.8790413766069
106.75589526861489
106.63399926841524
106.51219905701063
106.39049404040577
106.26888363408135
106.14736727285964
106.02594442672645
105.90461462666056
105.78337750934536
85.90628613172987
85.90628613172987
85.90628613172987
85.90628613172987
85.90628613172987
85.90628613172987
85.90628613172987
85.90628613172987
85.90628613172987
85.90628613172987
83.06031865530633
83.04680746921368
83.03338077781149
83.02003878752761
83.00678166201887
82.993609527451
82.98052247565255
82.96752056606537
82.95460382694758
108.20731484788706
108.07707038488128
107.94751604833598
107.81865395793004
107.69048761087156
107.5630219735164
107.43626360945854
107.31022083611455
107.18490389205266
107.06032507800121
106.93649879512374
106.81344133517372
106.69117024436319
106.56970329316843
106.44961124716741
106.32963876325225
106.20978716150681
106.09005770687897
105.97045157049126
105.85096976882488
105.73161306573668
105.61238180431171
85.90628613172987
85.90628613172987
85.90628613172987
85.90628613172987
85.90628613172987
85.90628613172987
85.90628613172987
85.90628613172987
85.90628613172987
85.90628613172987
83.06031734349169
83.0466010387278
83.0329986222724
83.01950939234713
83.00613278137915
82.99286833699516
82.97971571080176
82.96667465152585
82.9537450008207
107.86069945620821
107.73042453265066
107.60091861585867
107.47217465597312
107.34418068676537
107.2169196511036
107.09036916205672
106.96450123415906
106.83928205667193
106.71467195261013
106.59062581193723
106.46709453847008
106.34402815915223
106.22138043923397
106.09988683762165
105.97847177232511
105.8571327636868
105.73586758829035
105.61467442727186
105.49355209677235
105.37250041639564
105.25152083838319
85.90628613172987
85.90628613172987
85.90628613172987
85.90628613172987
85.90628613172987
85.90628613172987
85.90628613172987
85.90628613172987
85.90628613172987
85.90628613172987
83.0604573552354
83.04752622354445
83.03459837551719
83.02167575397834
83.00875989547153
82.99585199916118
82.98295296711095
82.97006342867543
82.95718375530191
107.20497360683996
107.07496274814928
106.94652787498248
106.81968772033315
106.69447337245764
106.5709284281449
106.4491091798973
106.32908470104884
106.21093655376228
106.09475758046662
105.98064871136795
105.86871181046848
105.75903622783385
105.65167980729528
105.5464086564302
105.44137980156425
105.33659044000713
105.2320366647715
105.1277129089435
105.02361108532271
104.91971921384001
104.81601908041107
85.90628613172987
85.90628613172987
85.90628613172987
85.90628613172987
85.90628613172987
85.90628613172987
85.90628613172987
85.90628613172987
85.90628613172987
85.90628613172987
83.04047171743318
83.02444114762015
83.00884300917271
82.9936722829195
82.97892509797187
82.96459848001528
82.9506902052017
82.93719871228349
82.92412304959214
106.20673886598483
106.07501003005821
105.9418187184205
105.80714279722287
105.670945931613
105.5331780016236
105.39377578604223
105.25266442204241
105.10976065896983
104.96497988822631
104.81825084944498
104.66954520220418
104.51893027565094
104.36664152252371
104.2147788233976
104.06291271138083
103.91109778120764
103.75939301472539
103.60786381309651
103.45658515903874
103.3056466797761
103.15516130778464
85.90628613172987
85.90628613172987
85.90628613172987
85.90628613172987
85.90628613172987
85.90628613172987
85.90628613172987
85.90628613172987
85.90628613172987
85.90628613172987
81.46649698731467
81.455186855355
81.44368330554177
81.43199998684254
81.4201470272479
81.40813195901544
81.39596025325274
81.38363563994822
81.37116030039086
106.20022568393732
106.06849162177808
105.93528673551418
105.80058746166463
105.66435549404827
105.52653783366166
105.38706633048695
105.24585693362269
105.10280867441634
104.95780234880424
104.81069863514605
104.66134204465928
104.50961503419349
104.35558186094948
104.20159532667212
104.04751842585587
103.89337171479295
103.73916090082808
103.58486844897696
103.43043959149409
103.27574963238429
103.12052353997512
102.96365904887259
83.04790604586931
83.00020357243464
82.99470737224571
82.99673183369062
82.9960604827078
82.99620669924958
82.99668269106871
82.98925990144903
81.46614367792371
81.45432598385018
81.44258094247412
81.43076794926871
81.41885929456356
81.40684193120441
81.39470989631238
81.3824603562162
81.37009197927358
81.3576041925625
106.1938749644015
106.06213637844026
105.92891990367605
105.79420048140317
105.65793783417132
105.52007612623444
105.38054234079728
105.23924332364629
105.09606049611185
104.95084020076864
104.80337531374646
104.65338031344295
104.50053772069717
104.34473028929108
104.18858921779298
104.03227871750049
103.87579208477109
103.71908906819216
103.5620802826463
103.4046047795543
103.2463869705886
103.08691808173458
102.92539956091417
83.06343422281931
82.97909666720477
82.9831610934683
82.98265672930664
82.98269801526055
82.98248107591404
82.98372407248355
82.97349781081856
81.45452422613594
81.44227093649772
81.4301399421985
81.41804113451431
81.40591763882865
81.39374083987362
81.38149421356357
81.36916794565772
81.3567562662654
81.34425613057934
106.18768721866535
106.05594487445273
105.92271893018795
105.78798272154441
105.65169403689127
105.51379433981526
105.3742059781781
105.23282710587314
105.08952229066048
104.94410479594758
104.79630257557099
104.6457000344087
104.49175555777119
104.33414873896812
104.17583576744819
104.01729354243069