# vtk DataFile Version 2.0
Niestacjonarne zagadnienie cieplne - ogrzewanie wody w garnku stalowym
ASCII
DATASET UNSTRUCTURED_GRID
POINTS 1353 float
0.0 0.0 0.0
0.0 3.846153846153846E-4 0.0
0.0 7.692307692307692E-4 0.0
0.0 0.0011538461538461537 0.0
0.0 0.0015384615384615385 0.0
0.0 0.0019230769230769232 0.0
0.0 0.0023076923076923075 0.0
0.0 0.002692307692307692 0.0
0.0 0.003076923076923077 0.0
0.0 0.0034615384615384616 0.0
0.0 0.0038461538461538464 0.0
0.0 0.004230769230769231 0.0
0.0 0.004615384615384615 0.0
0.0 0.005 0.0
0.0 0.005111111111111111 0.0
0.0 0.005222222222222223 0.0
0.0 0.005333333333333333 0.0
0.0 0.0054444444444444445 0.0
0.0 0.005555555555555556 0.0
0.0 0.005666666666666667 0.0
0.0 0.0057777777777777775 0.0
0.0 0.005888888888888889 0.0
0.0 0.006 0.0
0.0 0.01711111111111111 0.0
0.0 0.028222222222222225 0.0
0.0 0.03933333333333333 0.0
0.0 0.050444444444444445 0.0
0.0 0.06155555555555556 0.0
0.0 0.07266666666666667 0.0
0.0 0.08377777777777778 0.0
0.0 0.0948888888888889 0.0
0.0 0.10600000000000001 0.0
0.0 0.10611111111111113 0.0
0.0 0.10622222222222223 0.0
0.0 0.10633333333333335 0.0
0.0 0.10644444444444445 0.0
0.0 0.10655555555555557 0.0
0.0 0.10666666666666667 0.0
0.0 0.10677777777777779 0.0
0.0 0.1068888888888889 0.0
0.0 0.10700000000000001 0.0
1.1111111111111112E-4 0.0 0.0
1.1111111111111112E-4 3.846153846153846E-4 0.0
1.1111111111111112E-4 7.692307692307692E-4 0.0
1.1111111111111112E-4 0.0011538461538461537 0.0
1.1111111111111112E-4 0.0015384615384615385 0.0
1.1111111111111112E-4 0.0019230769230769232 0.0
1.1111111111111112E-4 0.0023076923076923075 0.0
1.1111111111111112E-4 0.002692307692307692 0.0
1.1111111111111112E-4 0.003076923076923077 0.0
1.1111111111111112E-4 0.0034615384615384616 0.0
1.1111111111111112E-4 0.0038461538461538464 0.0
1.1111111111111112E-4 0.004230769230769231 0.0
1.1111111111111112E-4 0.004615384615384615 0.0
1.1111111111111112E-4 0.005 0.0
1.1111111111111112E-4 0.005111111111111111 0.0
1.1111111111111112E-4 0.005222222222222223 0.0
1.1111111111111112E-4 0.005333333333333333 0.0
1.1111111111111112E-4 0.0054444444444444445 0.0
1.1111111111111112E-4 0.005555555555555556 0.0
1.1111111111111112E-4 0.005666666666666667 0.0
1.1111111111111112E-4 0.0057777777777777775 0.0
1.1111111111111112E-4 0.005888888888888889 0.0
1.1111111111111112E-4 0.006 0.0
1.1111111111111112E-4 0.01711111111111111 0.0
1.1111111111111112E-4 0.028222222222222225 0.0
1.1111111111111112E-4 0.03933333333333333 0.0
1.1111111111111112E-4 0.050444444444444445 0.0
1.1111111111111112E-4 0.06155555555555556 0.0
1.1111111111111112E-4 0.07266666666666667 0.0
1.1111111111111112E-4 0.08377777777777778 0.0
1.1111111111111112E-4 0.0948888888888889 0.0
1.1111111111111112E-4 0.10600000000000001 0.0
1.1111111111111112E-4 0.10611111111111113 0.0
1.1111111111111112E-4 0.10622222222222223 0.0
1.1111111111111112E-4 0.10633333333333335 0.0
1.1111111111111112E-4 0.10644444444444445 0.0
1.1111111111111112E-4 0.10655555555555557 0.0
1.1111111111111112E-4 0.10666666666666667 0.0
1.1111111111111112E-4 0.10677777777777779 0.0
1.1111111111111112E-4 0.1068888888888889 0.0
1.1111111111111112E-4 0.10700000000000001 0.0
2.2222222222222223E-4 0.0 0.0
2.2222222222222223E-4 3.846153846153846E-4 0.0
2.2222222222222223E-4 7.692307692307692E-4 0.0
2.2222222222222223E-4 0.0011538461538461537 0.0
2.2222222222222223E-4 0.0015384615384615385 0.0
2.2222222222222223E-4 0.0019230769230769232 0.0
2.2222222222222223E-4 0.0023076923076923075 0.0
2.2222222222222223E-4 0.002692307692307692 0.0
2.2222222222222223E-4 0.003076923076923077 0.0
2.2222222222222223E-4 0.0034615384615384616 0.0
2.2222222222222223E-4 0.0038461538461538464 0.0
2.2222222222222223E-4 0.004230769230769231 0.0
2.2222222222222223E-4 0.004615384615384615 0.0
2.2222222222222223E-4 0.005 0.0
2.2222222222222223E-4 0.005111111111111111 0.0
2.2222222222222223E-4 0.005222222222222223 0.0
2.2222222222222223E-4 0.005333333333333333 0.0
2.2222222222222223E-4 0.0054444444444444445 0.0
2.2222222222222223E-4 0.005555555555555556 0.0
2.2222222222222223E-4 0.005666666666666667 0.0
2.2222222222222223E-4 0.0057777777777777775 0.0
2.2222222222222223E-4 0.005888888888888889 0.0
2.2222222222222223E-4 0.006 0.0
2.2222222222222223E-4 0.01711111111111111 0.0
2.2222222222222223E-4 0.028222222222222225 0.0
2.2222222222222223E-4 0.03933333333333333 0.0
2.2222222222222223E-4 0.050444444444444445 0.0
2.2222222222222223E-4 0.06155555555555556 0.0
2.2222222222222223E-4 0.07266666666666667 0.0
2.2222222222222223E-4 0.08377777777777778 0.0
2.2222222222222223E-4 0.0948888888888889 0.0
2.2222222222222223E-4 0.10600000000000001 0.0
2.2222222222222223E-4 0.10611111111111113 0.0
2.2222222222222223E-4 0.10622222222222223 0.0
2.2222222222222223E-4 0.10633333333333335 0.0
2.2222222222222223E-4 0.10644444444444445 0.0
2.2222222222222223E-4 0.10655555555555557 0.0
2.2222222222222223E-4 0.10666666666666667 0.0
2.2222222222222223E-4 0.10677777777777779 0.0
2.2222222222222223E-4 0.1068888888888889 0.0
2.2222222222222223E-4 0.10700000000000001 0.0
3.333333333333334E-4 0.0 0.0
3.333333333333334E-4 3.846153846153846E-4 0.0
3.333333333333334E-4 7.692307692307692E-4 0.0
3.333333333333334E-4 0.0011538461538461537 0.0
3.333333333333334E-4 0.0015384615384615385 0.0
3.333333333333334E-4 0.0019230769230769232 0.0
3.333333333333334E-4 0.0023076923076923075 0.0
3.333333333333334E-4 0.002692307692307692 0.0
3.333333333333334E-4 0.003076923076923077 0.0
3.333333333333334E-4 0.0034615384615384616 0.0
3.333333333333334E-4 0.0038461538461538464 0.0
3.333333333333334E-4 0.004230769230769231 0.0
3.333333333333334E-4 0.004615384615384615 0.0
3.333333333333334E-4 0.005 0.0
3.333333333333334E-4 0.005111111111111111 0.0
3.333333333333334E-4 0.005222222222222223 0.0
3.333333333333334E-4 0.005333333333333333 0.0
3.333333333333334E-4 0.0054444444444444445 0.0
3.333333333333334E-4 0.005555555555555556 0.0
3.333333333333334E-4 0.005666666666666667 0.0
3.333333333333334E-4 0.0057777777777777775 0.0
3.333333333333334E-4 0.005888888888888889 0.0
3.333333333333334E-4 0.006 0.0
3.333333333333334E-4 0.01711111111111111 0.0
3.333333333333334E-4 0.028222222222222225 0.0
3.333333333333334E-4 0.03933333333333333 0.0
3.333333333333334E-4 0.050444444444444445 0.0
3.333333333333334E-4 0.06155555555555556 0.0
3.333333333333334E-4 0.07266666666666667 0.0
3.333333333333334E-4 0.08377777777777778 0.0
3.333333333333334E-4 0.0948888888888889 0.0
3.333333333333334E-4 0.10600000000000001 0.0
3.333333333333334E-4 0.10611111111111113 0.0
3.333333333333334E-4 0.10622222222222223 0.0
3.333333333333334E-4 0.10633333333333335 0.0
3.333333333333334E-4 0.10644444444444445 0.0
3.333333333333334E-4 0.10655555555555557 0.0
3.333333333333334E-4 0.10666666666666667 0.0
3.333333333333334E-4 0.10677777777777779 0.0
3.333333333333334E-4 0.1068888888888889 0.0
3.333333333333334E-4 0.10700000000000001 0.0
4.4444444444444447E-4 0.0 0.0
4.4444444444444447E-4 3.846153846153846E-4 0.0
4.4444444444444447E-4 7.692307692307692E-4 0.0
4.4444444444444447E-4 0.0011538461538461537 0.0
4.4444444444444447E-4 0.0015384615384615385 0.0
4.4444444444444447E-4 0.0019230769230769232 0.0
4.4444444444444447E-4 0.0023076923076923075 0.0
4.4444444444444447E-4 0.002692307692307692 0.0
4.4444444444444447E-4 0.003076923076923077 0.0
4.4444444444444447E-4 0.0034615384615384616 0.0
4.4444444444444447E-4 0.0038461538461538464 0.0
4.4444444444444447E-4 0.004230769230769231 0.0
4.4444444444444447E-4 0.004615384615384615 0.0
4.4444444444444447E-4 0.005 0.0
4.4444444444444447E-4 0.005111111111111111 0.0
4.4444444444444447E-4 0.005222222222222223 0.0
4.4444444444444447E-4 0.005333333333333333 0.0
4.4444444444444447E-4 0.0054444444444444445 0.0
4.4444444444444447E-4 0.005555555555555556 0.0
4.4444444444444447E-4 0.005666666666666667 0.0
4.4444444444444447E-4 0.0057777777777777775 0.0
4.4444444444444447E-4 0.005888888888888889 0.0
4.4444444444444447E-4 0.006 0.0
4.4444444444444447E-4 0.01711111111111111 0.0
4.4444444444444447E-4 0.028222222222222225 0.0
4.4444444444444447E-4 0.03933333333333333 0.0
4.4444444444444447E-4 0.050444444444444445 0.0
4.4444444444444447E-4 0.06155555555555556 0.0
4.4444444444444447E-4 0.07266666666666667 0.0
4.4444444444444447E-4 0.08377777777777778 0.0
4.4444444444444447E-4 0.0948888888888889 0.0
4.4444444444444447E-4 0.10600000000000001 0.0
4.4444444444444447E-4 0.10611111111111113 0.0
4.4444444444444447E-4 0.10622222222222223 0.0
4.4444444444444447E-4 0.10633333333333335 0.0
4.4444444444444447E-4 0.10644444444444445 0.0
4.4444444444444447E-4 0.10655555555555557 0.0
4.4444444444444447E-4 0.10666666666666667 0.0
4.4444444444444447E-4 0.10677777777777779 0.0
4.4444444444444447E-4 0.1068888888888889 0.0
4.4444444444444447E-4 0.10700000000000001 0.0
5.555555555555556E-4 0.0 0.0
5.555555555555556E-4 3.846153846153846E-4 0.0
5.555555555555556E-4 7.692307692307692E-4 0.0
5.555555555555556E-4 0.0011538461538461537 0.0
5.555555555555556E-4 0.0015384615384615385 0.0
5.555555555555556E-4 0.0019230769230769232 0.0
5.555555555555556E-4 0.0023076923076923075 0.0
5.555555555555556E-4 0.002692307692307692 0.0
5.555555555555556E-4 0.003076923076923077 0.0
5.555555555555556E-4 0.0034615384615384616 0.0
5.555555555555556E-4 0.0038461538461538464 0.0
5.555555555555556E-4 0.004230769230769231 0.0
5.555555555555556E-4 0.004615384615384615 0.0
5.555555555555556E-4 0.005 0.0
5.555555555555556E-4 0.005111111111111111 0.0
5.555555555555556E-4 0.005222222222222223 0.0
5.555555555555556E-4 0.005333333333333333 0.0
5.555555555555556E-4 0.0054444444444444445 0.0
5.555555555555556E-4 0.005555555555555556 0.0
5.555555555555556E-4 0.005666666666666667 0.0
5.555555555555556E-4 0.0057777777777777775 0.0
5.555555555555556E-4 0.005888888888888889 0.0
5.555555555555556E-4 0.006 0.0
5.555555555555556E-4 0.01711111111111111 0.0
5.555555555555556E-4 0.028222222222222225 0.0
5.555555555555556E-4 0.03933333333333333 0.0
5.555555555555556E-4 0.050444444444444445 0.0
5.555555555555556E-4 0.06155555555555556 0.0
[...]
POINT_DATA 1353
SCALARS Temperatura float 1
LOOKUP_TABLE default
58.59020112657754
58.44890892493341
58.306623082181275
58.16330961528555
58.01892914044682
57.87342904905454
57.726738716164895
57.57876147465636
57.429360541948114
57.2783289190739
57.1253429539917
56.96980455609118
56.810803554209514
56.64480287043144
56.47368662270792
56.30603373245671
56.138880338404775
55.971550866906995
55.8035294019781
55.63438089415993
55.463695644113265
55.29107345845152
55.116120563424744
34.9699211065561
34.757406532010016
34.79406164537827
34.78508286618077
34.787343693698205
34.78654812402257
34.78774327216673
34.782599059885335
34.35378605474133
34.35036288901001
34.347005311207724
34.343710786152755
34.34047690343418
34.33730149256358
34.3341827067673
34.33111907629077
34.32810953727537
34.32515344443843
58.59256492848967
58.45126643720551
58.308973289803774
58.16565293290357
58.02126602352992
57.87576017356307
57.72906502677088
57.58108457574236
57.43168265461358
57.28065633181476
57.12767760855522
56.97219605081515
56.813145731492206
56.64802744538481
56.48054677708879
56.31331105207293
56.146447533127294
55.97932175709512
55.81147788330932
55.642497537409184
55.471977270925436
55.29951747726591
55.12472192826106
34.97108166980125
34.76098967323465
34.79701634709998
34.78820149666843
34.79041869992766
34.789637811232694
34.79081641082099
34.78572595770052
34.35674661204089
34.35332402030178
34.349967035516094
34.3466730494566
34.34343959255201
34.340264452227494
34.33714575585848
34.33408202047005
34.3310721770027
34.328115578881665
58.59506336562564
58.453761541372124
58.31146361192059
58.168139586448525
58.02375056044654
57.87824471765815
57.73155260497711
57.58357982961659
57.43419353429447
57.283196673274325
57.130274720422946
56.97490503730341
56.81605382673516
56.65203907627465
56.48635338689886
56.32048054020673
56.15441997221608
55.987942479125
55.82068604944391
55.65227454774412
55.48231907867218
55.310420007441984
55.13617235382458
34.96843685827804
34.76570492648009
34.79982917138082
34.791510521965336
34.79359567936822
34.792859249985035
34.793987653540405
34.78906067581965
34.35975753564902
34.3563381490972
34.352984392100225
34.34969343055545
34.34646261524989
34.34328960961368
34.340172468523576
34.33710967509353
34.33410014948736
34.33114324431257
58.597697494253595
58.45639415642904
58.314093966790765
58.17076944972951
58.02638258036426
57.88088244860833
57.73420106430436
57.586246709431194
57.436891775409556
57.28594906686874
57.133126193714496
56.97793558529051
56.81948124006732
56.656580578171635
56.49236712484219
56.32783505902263
56.16292396062153
55.99745793251597
55.8311652778669
55.66371151522865
55.49472230892299
55.32379251214862
55.1504976872873
34.961975898028136
34.77155681101413
34.802498522966005
34.795010512007075
34.79687447296591
34.796212548753445
34.79725693050974
34.79260340501327
34.36281857475571
34.35940528530855
34.35605762530658
34.352772356571194
34.34954652065021
34.34637758130511
34.343263489589525
34.34020269117862
34.33719410375416
34.33423708807247
58.60046785967882
58.45916427735172
58.31686419034933
58.17354230922511
58.02916179724839
57.883672967593554
57.73700980136257
57.58908421216596
57.43977556761261
57.28891040564191
57.136224085586115
56.98128195021072
56.82335560148753
56.66158227201297
56.49878374132617
56.3356429458251
56.172069395757404
56.00790395333972
55.84291296580927
55.67679337810862
55.509179120844024
55.33964892637501
55.1677412405273
34.951681173953276
34.778552756482604
34.80502174688077
34.79870239549593
34.80025480019528
34.79969787108106
34.80062411098842
34.7963544379308
34.36592929387252
34.36252547147638
34.35918719867314
34.35591060478137
34.352692279510244
34.349529430284164
34.34641990816684
34.34336215208051
34.340355110428305
34.337398174937015
58.60337470546923
58.46207185939403
58.31977405547119
58.17645786098577
58.032087812214264
57.88661572309312
57.73997798855281
57.59209096120836
57.442842528600515
57.29207606730663
57.13955987946118
56.98492717834101
56.82761624055082
56.66699878175019
56.50564587608817
56.343977934871454
56.18190111721192
56.01927290873851
55.85588871950711
55.69147070007619
55.52565708533942
55.35799722105036
55.18796492879849
34.93752790914621
34.786703195147126
34.807395101278836
34.802587468053595
34.803736256480626
34.80331543674829
34.80408900166074
34.80031417409908
34.36908905518562
34.36569884966318
34.3623739167886
34.35910943568127
34.35590139014425
34.352746730789654
34.34964328524506
34.346589576775365
34.3435846518658
34.340627973145814
58.60641807190447
58.465116777214334
58.32282326916704
58.179515712643116
58.035160117590465
57.88971002116772
57.743104590677525
57.59526526344697
57.44608969657396
57.295440454269695
57.14312334660372
56.988848693871645
56.83221186372834
56.67278439096966
56.512932674279014
56.352824949420196
56.192383467641555
56.03149407858934
55.86999027793912
55.707632210408285
55.544072572327806
55.37882329746073
55.21125135629267
34.919483583997
34.79602172641831
34.80961370992777
34.80666740619193
34.8073183088784
34.80706552367582
34.80765134396621
34.804483128090865
34.37229698953683
34.36892579757393
34.365619170263955
34.362370831820556
34.35917604897953
34.356031644725306
34.35293567437285
34.34988690918672
34.34688459608721
34.34392832374799
58.60959784613923
58.468298812690335
58.326011466463996
58.182715385692724
58.03837810232175
57.892955036858545
57.74638839083932
57.59860515259261
57.44951363335071
57.29899721733468
57.14690257375094
56.99302154347027
56.83709661396437
56.67888788873105
56.520588508162774
56.36211378503192
56.20341696468917
56.04442674765996
55.88503318383416
55.72506444777214
55.56424148530616
55.40205493697995
55.23770761739537
34.89750688844548
34.80652540922762
34.811671479396246
34.810944291127015
34.81100028890378
34.81094847098706
34.81131080983304
34.808861942738
34.37555194914401
34.37220723575887
34.36892537772622
34.365698011626485
34.362519329079774
34.359386974687055
34.356299611770396
34.35325647901712
34.35025714482057
34.34730138508166
58.612913790410616
58.471617653668
58.32933820583777
58.18605631750432
58.04174105821436
57.896349827680076
57.74982801874142
57.60210844076307
57.45311054747859
57.30273943367164
57.1508844365091
56.997419998650244
56.84222756261103
56.685252653508954
56.52853544559796
56.37173703713783
56.21485200905454
56.057864435406685
55.90074037383841
55.74341372679536
55.58575259830694
55.42747895866826
55.26747249689034
34.87154575520053
34.8182353037181
34.8135609483031
34.81542065120778
34.814781380146975
34.8149646838529
34.815066995691446
34.8134514072442
34.378852442809674
34.375543972601626
34.37229841648443
34.36909574878275
34.36593526583154
34.36281613444488
34.35973804810189
34.35670092011862
34.353704747914165
34.350749546412935
58.61636555986072
58.475072896793165
58.332802966781514
58.189537863271575
58.04524818677076
57.899893348495105
57.753421980662885
57.60577277769865
57.45687641801644
57.306659815777046
57.155055155227465
57.00201833922451
56.84756350589715
56.6918185065632
56.5366821168505
56.38156386646172
56.226504419489395
56.071549655493776
55.91675298911749
55.76217868595543
55.60790695346516
55.4540425172048
36.246480739968035
36.246480739968035
36.246480739968035
36.246480739968035
36.246480739968035
36.246480739968035
36.246480739968035
36.246480739968035
36.246480739968035
36.246480739968035
34.378956150461896
34.37574671497821
34.372570351665416
34.36942868942896
34.366322987287575
34.363254202379146
34.360223039596285
34.35722998211477
34.35427530998701
59.27478823511412
59.134835688417105
58.996325919771444
58.859273836590944
58.72370414508304
58.58965147993752
58.457160589827986
58.326286492436985
58.197094424443485
58.0696592476419
57.94406364152194
57.82039381087286
57.69873086044759
57.579136403838724
57.46159770893241
57.34429989723302
57.22724152223597
57.1104198029882
56.99382999401352
56.877464486022774
56.76131142769649
56.6453524086531
36.246480739968035
36.246480739968035
36.246480739968035
36.246480739968035
36.246480739968035
36.246480739968035
36.246480739968035
36.246480739968035
36.246480739968035
36.246480739968035
34.828707216877945
34.82404067490127
34.81959485071842
34.81536886954869
34.81136201715762
34.807573721031986
34.80400353660698
34.800651138727446
34.79751631641187
59.71717215623031
59.57701228854186
59.43769142441284
59.29920406568502
59.161540847743474
59.02468839921746
58.8886291429787
58.75334105989946
58.6187974603259
58.484966852736406
58.3518130895056
58.219296135304944
58.087373967098976
57.95600601854353
57.825940456925835
57.69598225999267
57.56612927237171
57.43637966321064
57.306732094466376
57.17718596191218
57.04774176533474
56.91840173158375
36.246480739968035
36.246480739968035
36.246480739968035
36.246480739968035
36.246480739968035
36.246480739968035
36.246480739968035
36.246480739968035
36.246480739968035
36.246480739968035
34.833913013956625
34.830157176368054
34.82649753616229
34.822934479785765
34.819468321793444
34.816099310187056
34.81282763034069
34.809653407469604
34.80657670816235
59.948527495254496
59.808392050385734
59.669051513794464
59.53050762748999
59.392763231951925
59.2558223391747
59.119690236645205
58.98437361754921
58.84988072643914
58.71622149773499
58.58340763992127
58.45145257297334
58.32037108056322
58.19017856048326
58.06147968683775
57.93292406759624
57.804512834715595
57.67624704449635
57.54812763335309
57.42015535395602
57.29233067653647
57.16465362210391
36.246480739968035
36.246480739968035
36.246480739968035
36.246480739968035
36.246480739968035
36.246480739968035
36.246480739968035
36.246480739968035
36.246480739968035
36.246480739968035
34.83385604576647
34.82986868877659
34.82600972213618
34.82227896471791
34.818676262000146
34.815201484512606
34.811854526684705
34.808635306107085
34.80554376306622
60.07887280696235
59.93873576414117
59.79933602626307
59.66067324707426
59.5227467291746
59.38555539426352
59.24909774056836
59.113371788244955
58.9783750150392
58.84410428759093
58.71055580032727
58.57772504621627
58.445606856479884
58.31419554145805
58.184180929727994
58.05429103921182
57.924525392506304
57.794883528153036
57.66536501208157
57.535969454348226
57.40669653526635
57.27754604987228
36.246480739968035
36.246480739968035
36.246480739968035
36.246480739968035
36.246480739968035
36.246480739968035
36.246480739968035
36.246480739968035
36.246480739968035
36.246480739968035
34.833856379502905
34.829929481875894
34.82612242281218
34.822435232209855
34.818867930768356
34.815420530450126
34.812093034825615
34.80888543929925
34.80579773125416
60.14834423953728
60.00820619048915
59.86877499268868
59.730050875053166
59.59203412894974
59.454725118978196
59.31812429849573
59.1822322298562
59.047049608986384
58.912577293136785
58.778816328902316
58.64576797427294
58.51343370491527
58.38181519597795
58.25160274394388
58.121517103068825
57.99155843940267
57.86172691569652
57.732022688484555
57.60244590373198
57.472996689941695
57.343675146302814
36.246480739968035
36.246480739968035
36.246480739968035
36.246480739968035
36.246480739968035
36.246480739968035
36.246480739968035
36.246480739968035
36.246480739968035
36.246480739968035
34.833861761601014
34.82991901894821
34.82609839465029
34.82239984652138
34.818823335284755
34.81536882443302
34.81203628012276
34.808825671104024
34.80573696867447
60.18228655646397
60.04214877642314
59.90270435311964
59.76395337957823
59.62589591314677
59.48853197163973
59.35186152774502
59.21588450162603
59.0806007517267
58.94601006398933
58.81211214017435
58.67890658691847
58.54639290820382
58.41457050365602
58.28414156281396
58.15383698519712
58.02365671941762
57.89360071437508
57.76366892002507
57.633861288559324
57.50417777631542
57.37461834710904
36.246480739968035
36.246480739968035
36.246480739968035
36.246480739968035
36.246480739968035
36.246480739968035
36.246480739968035
36.246480739968035
36.246480739968035
36.246480739968035
34.83385895022834
34.829920437737094
34.82610342417921
34.82240789131532
34.81883381981016
34.815381189278376
34.812049978319436
34.808840164541444
34.80575172457691
60.19240772066712
60.05226972967713
59.912820516153964
59.77406021551838
59.635988960296004
59.4986068823391
59.36191411606879
59.2259108028057
59.090597096230496
58.95597316892632
58.822039219724324
58.68879548110661
58.55624222539833
58.424379768590825
58.29391122194162
58.16356718615644
58.03334770383191
57.90325281738481
57.773282568697816
57.6434369985591
57.513716145735735
57.38412004533391
36.246480739968035
36.246480739968035
36.246480739968035
36.246480739968035
36.246480739968035
36.246480739968035
36.246480739968035
36.246480739968035
36.246480739968035
36.246480739968035
34.83386020236645
34.82992030874667
34.82610212019231
34.82240560894529
34.81883074774191
34.81537750978738
34.812045868736256
34.80883579867905
34.80574727413321
60.182286556463865
60.04214877642302
59.90270435311948
59.76395337957802
59.62589591314646
59.48853197163927
59.35186152774445
59.2158845016254
59.080600751725996
58.946010063988496
58.812112140173355
58.67890658691729
58.546392908202456
58.41457050365447
58.284141562812216
58.153836985195184
58.02365671941554
57.893600714372845
57.7636689200227
57.63386128855687
57.50417777631293
57.37461834710651
36.246480739968035
36.246480739968035
36.246480739968035
36.246480739968035
36.246480739968035
36.246480739968035
36.246480739968035
36.246480739968035
36.246480739968035
36.246480739968035
34.83385895022497
34.829920437733726
34.826103424175834
34.822407891311954
34.818833819806784
34.81538118927497
34.81204997831602
34.808840164538026
34.80575172457349
60.14834423953999
60.00820619049185
59.868774992691385
59.730050875055916
59.59203412895254
59.45472511898106
59.31812429849862
59.182232229859046
59.047049608989205
58.91257729313963
58.77881632890522
58.64576797427592
58.51343370491833
58.381815195981126
58.25160274394715
58.12151710307219
57.99155843940613
57.86172691570011
57.7320226884882
57.602445903735656
57.47299668994535
57.34367514630646
36.246480739968035
36.246480739968035
36.246480739968035
36.246480739968035
36.246480739968035
36.246480739968035
36.246480739968035
36.246480739968035
36.246480739968035
36.246480739968035
34.833861761590505
34.829919018937645
34.82609839463966
34.82239984651069
34.81882333527401
34.81536882442224
34.81203628011195
34.80882567109319
34.80573696866364
60.07887280696658
59.93873576414542
59.799336026267376
59.6606732470786
59.52274672917893
59.38555539426776
59.249097740572594
59.113371788249154
58.978375015043355
58.84410428759496
58.71055580033112
58.57772504621991
58.44560685648331
58.314195541461245
58.184180929731006
58.05429103921469
57.924525392509075
57.79488352815572
57.665365012084195
57.53596945435079
57.4066965352689
57.2775460498748
36.246480739968035
36.246480739968035
36.246480739968035
36.246480739968035
36.246480739968035
36.246480739968035
36.246480739968035
36.246480739968035
36.246480739968035
36.246480739968035
34.833856379502144
34.82992948187513
34.82612242281144
34.822435232209116
34.81886793076764
34.81542053044944
34.81209303482493
34.808885439298564
34.80579773125348
59.94852749526429
59.80839205039551
59.66905151380421
59.53050762749971
59.39276323196162
59.25582233918438
59.11969023665484
58.98437361755882
58.84988072644876
58.71622149774464
58.58340763993095
58.45145257298305
58.32037108057295
58.190178560493
58.06147968684748
57.93292406760596
57.80451283472527
57.676247044505914
57.5481276333626
57.42015535396546
57.29233067654579
57.164653622113136
36.246480739968035
36.246480739968035
36.246480739968035
36.246480739968035
36.246480739968035
36.246480739968035
36.246480739968035
36.246480739968035
36.246480739968035
36.246480739968035
34.83385604576481
34.82986868877493
34.8260097221345
34.82227896471624
34.81867626199847
34.815201484510915
34.81185452668302
34.8086353061054
34.80554376306453
59.71717215624266
59.57701228855422
59.43769142442525
59.299204065697495
59.16154084775603
59.02468839923008
58.8886291429914
58.75334105991221
58.61879746033868
58.484966852749224
58.351813089518465
58.21929613531788
58.087373967112015
57.95600601855669
57.82594045693913
57.69598226000608
57.56612927238524
57.43637966322431
57.30673209448013
57.17718596192601
57.04774176534863
56.91840173159765
36.246480739968035
36.246480739968035
36.246480739968035
36.246480739968035
36.246480739968035
36.246480739968035
36.246480739968035
36.246480739968035
36.246480739968035
36.246480739968035
34.83391301394976
34.83015717636114
34.826497536155344
34.82293447977877
34.81946832178644
34.81609931018006
34.8128276303337
34.80965340746264
34.806576708155404
59.274788235117114
59.13483568842011
58.99632591977444
58.859273836593964
58.72370414508605
58.5896514799405
58.45716058983091
58.32628649243988
58.197094424446355
58.069659247644786
57.94406364152485
57.82039381087575
57.69873086045047
57.579136403841595
57.46159770893524
57.34429989723582
57.22724152223874
57.11041980299088
56.99382999401619
56.87746448602541
56.76131142769904
56.645352408655604
36.246480739968035
36.246480739968035
36.246480739968035
36.246480739968035
36.246480739968035
36.246480739968035
36.246480739968035
36.246480739968035
36.246480739968035
36.246480739968035
34.82870721687858
34.8240406749019
34.81959485071904
34.815368869549324
34.81136201715824
34.80757372103257
34.804003536607524
34.800651138727964
34.797516316412384
58.61636555986095
58.4750728967934
58.33280296678172
58.18953786327173
58.04524818677089
57.89989334849526
57.75342198066312
57.60577277769894
57.45687641801681
57.306659815777465
57.15505515522792
57.00201833922504
56.84756350589771
56.691818506563784
56.536682116851125
56.381563866462415
56.226504419490155
56.07154965549466
55.91675298911839
55.762178685956364
55.60790695346613
55.454042517205785
36.246480739968035
36.246480739968035
36.246480739968035
36.246480739968035
36.246480739968035
36.246480739968035
36.246480739968035
36.246480739968035
36.246480739968035
36.246480739968035
34.378956150456624
34.37574671497298
34.37257035166024
34.3694286894238
34.36632298728245
34.36325420237405
34.360223039591226
34.35722998210973
34.35427530998197
58.6129137904109
58.47161765366822
58.32933820583796
58.18605631750449
58.04174105821452
57.89634982768022
57.749828018741724
57.60210844076339
57.45311054747901
57.30273943367209
57.15088443650954
56.997419998650855
56.842227562611704
56.68525265350962
56.528535445598635
56.3717370371385
56.214852009055306
56.057864435407495
55.90074037383928
55.74341372679629
55.58575259830785
55.42747895866923
55.26747249689131
34.871545755204345
34.81823530373286
34.813560948308535
34.815420651212925
34.814781380167304
34.81496468385769
34.815066995690664
34.81345140724517
34.37885244280438
34.375543972596354
34.372298416479154
34.36909574877749
34.36593526582631
34.362816134439676
34.359738048096716
34.35670092011347
34.35370474790901
34.35074954640776
58.609597846139536
58.468298812690556
58.3260114664642
58.182715385692866
58.03837810232191
57.8929550368587
57.74638839083961
57.59860515259301
57.44951363335118
57.29899721733516
57.146902573751404
56.99302154347093
56.83709661396514
56.67888788873172
56.52058850816348
56.362113785032655
56.2034169646899
56.04442674766077
55.885033183835
55.725064447773
55.56424148530705
55.40205493698085
55.237707617396296
34.89750688844937
34.806525409242425
34.81167147940163
34.810944291132174
34.81100028892417
34.81094847099185
34.811310809832285
34.808861942738915
34.37555194913869
34.37220723575351
34.368925377720885
34.36569801162117
34.36251932907449
34.35938697468179
34.356299611765166
34.3532564790119
34.35025714481534
34.34730138507643
58.60641807190475
58.4651167772146
58.322823269167245
58.17951571264323
58.035160117590586
57.889710021167865
57.743104590677774
57.59526526344745
57.44608969657446
57.295440454270235
57.14312334660418
56.98884869387236
56.83221186372912
56.67278439097042
56.51293267427977
56.352824949420956
56.19238346764234
56.03149407859013
55.869990277939955
55.70763221040913
55.54407257232869