# vtk DataFile Version 2.0
Niestacjonarne zagadnienie cieplne - ogrzewanie wody w garnku stalowym
ASCII
DATASET UNSTRUCTURED_GRID
POINTS 1353 float
0.0 0.0 0.0
0.0 3.846153846153846E-4 0.0
0.0 7.692307692307692E-4 0.0
0.0 0.0011538461538461537 0.0
0.0 0.0015384615384615385 0.0
0.0 0.0019230769230769232 0.0
0.0 0.0023076923076923075 0.0
0.0 0.002692307692307692 0.0
0.0 0.003076923076923077 0.0
0.0 0.0034615384615384616 0.0
0.0 0.0038461538461538464 0.0
0.0 0.004230769230769231 0.0
0.0 0.004615384615384615 0.0
0.0 0.005 0.0
0.0 0.005111111111111111 0.0
0.0 0.005222222222222223 0.0
0.0 0.005333333333333333 0.0
0.0 0.0054444444444444445 0.0
0.0 0.005555555555555556 0.0
0.0 0.005666666666666667 0.0
0.0 0.0057777777777777775 0.0
0.0 0.005888888888888889 0.0
0.0 0.006 0.0
0.0 0.01711111111111111 0.0
0.0 0.028222222222222225 0.0
0.0 0.03933333333333333 0.0
0.0 0.050444444444444445 0.0
0.0 0.06155555555555556 0.0
0.0 0.07266666666666667 0.0
0.0 0.08377777777777778 0.0
0.0 0.0948888888888889 0.0
0.0 0.10600000000000001 0.0
0.0 0.10611111111111113 0.0
0.0 0.10622222222222223 0.0
0.0 0.10633333333333335 0.0
0.0 0.10644444444444445 0.0
0.0 0.10655555555555557 0.0
0.0 0.10666666666666667 0.0
0.0 0.10677777777777779 0.0
0.0 0.1068888888888889 0.0
0.0 0.10700000000000001 0.0
1.1111111111111112E-4 0.0 0.0
1.1111111111111112E-4 3.846153846153846E-4 0.0
1.1111111111111112E-4 7.692307692307692E-4 0.0
1.1111111111111112E-4 0.0011538461538461537 0.0
1.1111111111111112E-4 0.0015384615384615385 0.0
1.1111111111111112E-4 0.0019230769230769232 0.0
1.1111111111111112E-4 0.0023076923076923075 0.0
1.1111111111111112E-4 0.002692307692307692 0.0
1.1111111111111112E-4 0.003076923076923077 0.0
1.1111111111111112E-4 0.0034615384615384616 0.0
1.1111111111111112E-4 0.0038461538461538464 0.0
1.1111111111111112E-4 0.004230769230769231 0.0
1.1111111111111112E-4 0.004615384615384615 0.0
1.1111111111111112E-4 0.005 0.0
1.1111111111111112E-4 0.005111111111111111 0.0
1.1111111111111112E-4 0.005222222222222223 0.0
1.1111111111111112E-4 0.005333333333333333 0.0
1.1111111111111112E-4 0.0054444444444444445 0.0
1.1111111111111112E-4 0.005555555555555556 0.0
1.1111111111111112E-4 0.005666666666666667 0.0
1.1111111111111112E-4 0.0057777777777777775 0.0
1.1111111111111112E-4 0.005888888888888889 0.0
1.1111111111111112E-4 0.006 0.0
1.1111111111111112E-4 0.01711111111111111 0.0
1.1111111111111112E-4 0.028222222222222225 0.0
1.1111111111111112E-4 0.03933333333333333 0.0
1.1111111111111112E-4 0.050444444444444445 0.0
1.1111111111111112E-4 0.06155555555555556 0.0
1.1111111111111112E-4 0.07266666666666667 0.0
1.1111111111111112E-4 0.08377777777777778 0.0
1.1111111111111112E-4 0.0948888888888889 0.0
1.1111111111111112E-4 0.10600000000000001 0.0
1.1111111111111112E-4 0.10611111111111113 0.0
1.1111111111111112E-4 0.10622222222222223 0.0
1.1111111111111112E-4 0.10633333333333335 0.0
1.1111111111111112E-4 0.10644444444444445 0.0
1.1111111111111112E-4 0.10655555555555557 0.0
1.1111111111111112E-4 0.10666666666666667 0.0
1.1111111111111112E-4 0.10677777777777779 0.0
1.1111111111111112E-4 0.1068888888888889 0.0
1.1111111111111112E-4 0.10700000000000001 0.0
2.2222222222222223E-4 0.0 0.0
2.2222222222222223E-4 3.846153846153846E-4 0.0
2.2222222222222223E-4 7.692307692307692E-4 0.0
2.2222222222222223E-4 0.0011538461538461537 0.0
2.2222222222222223E-4 0.0015384615384615385 0.0
2.2222222222222223E-4 0.0019230769230769232 0.0
2.2222222222222223E-4 0.0023076923076923075 0.0
2.2222222222222223E-4 0.002692307692307692 0.0
2.2222222222222223E-4 0.003076923076923077 0.0
2.2222222222222223E-4 0.0034615384615384616 0.0
2.2222222222222223E-4 0.0038461538461538464 0.0
2.2222222222222223E-4 0.004230769230769231 0.0
2.2222222222222223E-4 0.004615384615384615 0.0
2.2222222222222223E-4 0.005 0.0
2.2222222222222223E-4 0.005111111111111111 0.0
2.2222222222222223E-4 0.005222222222222223 0.0
2.2222222222222223E-4 0.005333333333333333 0.0
2.2222222222222223E-4 0.0054444444444444445 0.0
2.2222222222222223E-4 0.005555555555555556 0.0
2.2222222222222223E-4 0.005666666666666667 0.0
2.2222222222222223E-4 0.0057777777777777775 0.0
2.2222222222222223E-4 0.005888888888888889 0.0
2.2222222222222223E-4 0.006 0.0
2.2222222222222223E-4 0.01711111111111111 0.0
2.2222222222222223E-4 0.028222222222222225 0.0
2.2222222222222223E-4 0.03933333333333333 0.0
2.2222222222222223E-4 0.050444444444444445 0.0
2.2222222222222223E-4 0.06155555555555556 0.0
2.2222222222222223E-4 0.07266666666666667 0.0
2.2222222222222223E-4 0.08377777777777778 0.0
2.2222222222222223E-4 0.0948888888888889 0.0
2.2222222222222223E-4 0.10600000000000001 0.0
2.2222222222222223E-4 0.10611111111111113 0.0
2.2222222222222223E-4 0.10622222222222223 0.0
2.2222222222222223E-4 0.10633333333333335 0.0
2.2222222222222223E-4 0.10644444444444445 0.0
2.2222222222222223E-4 0.10655555555555557 0.0
2.2222222222222223E-4 0.10666666666666667 0.0
2.2222222222222223E-4 0.10677777777777779 0.0
2.2222222222222223E-4 0.1068888888888889 0.0
2.2222222222222223E-4 0.10700000000000001 0.0
3.333333333333334E-4 0.0 0.0
3.333333333333334E-4 3.846153846153846E-4 0.0
3.333333333333334E-4 7.692307692307692E-4 0.0
3.333333333333334E-4 0.0011538461538461537 0.0
3.333333333333334E-4 0.0015384615384615385 0.0
3.333333333333334E-4 0.0019230769230769232 0.0
3.333333333333334E-4 0.0023076923076923075 0.0
3.333333333333334E-4 0.002692307692307692 0.0
3.333333333333334E-4 0.003076923076923077 0.0
3.333333333333334E-4 0.0034615384615384616 0.0
3.333333333333334E-4 0.0038461538461538464 0.0
3.333333333333334E-4 0.004230769230769231 0.0
3.333333333333334E-4 0.004615384615384615 0.0
3.333333333333334E-4 0.005 0.0
3.333333333333334E-4 0.005111111111111111 0.0
3.333333333333334E-4 0.005222222222222223 0.0
3.333333333333334E-4 0.005333333333333333 0.0
3.333333333333334E-4 0.0054444444444444445 0.0
3.333333333333334E-4 0.005555555555555556 0.0
3.333333333333334E-4 0.005666666666666667 0.0
3.333333333333334E-4 0.0057777777777777775 0.0
3.333333333333334E-4 0.005888888888888889 0.0
3.333333333333334E-4 0.006 0.0
3.333333333333334E-4 0.01711111111111111 0.0
3.333333333333334E-4 0.028222222222222225 0.0
3.333333333333334E-4 0.03933333333333333 0.0
3.333333333333334E-4 0.050444444444444445 0.0
3.333333333333334E-4 0.06155555555555556 0.0
3.333333333333334E-4 0.07266666666666667 0.0
3.333333333333334E-4 0.08377777777777778 0.0
3.333333333333334E-4 0.0948888888888889 0.0
3.333333333333334E-4 0.10600000000000001 0.0
3.333333333333334E-4 0.10611111111111113 0.0
3.333333333333334E-4 0.10622222222222223 0.0
3.333333333333334E-4 0.10633333333333335 0.0
3.333333333333334E-4 0.10644444444444445 0.0
3.333333333333334E-4 0.10655555555555557 0.0
3.333333333333334E-4 0.10666666666666667 0.0
3.333333333333334E-4 0.10677777777777779 0.0
3.333333333333334E-4 0.1068888888888889 0.0
3.333333333333334E-4 0.10700000000000001 0.0
4.4444444444444447E-4 0.0 0.0
4.4444444444444447E-4 3.846153846153846E-4 0.0
4.4444444444444447E-4 7.692307692307692E-4 0.0
4.4444444444444447E-4 0.0011538461538461537 0.0
4.4444444444444447E-4 0.0015384615384615385 0.0
4.4444444444444447E-4 0.0019230769230769232 0.0
4.4444444444444447E-4 0.0023076923076923075 0.0
4.4444444444444447E-4 0.002692307692307692 0.0
4.4444444444444447E-4 0.003076923076923077 0.0
4.4444444444444447E-4 0.0034615384615384616 0.0
4.4444444444444447E-4 0.0038461538461538464 0.0
4.4444444444444447E-4 0.004230769230769231 0.0
4.4444444444444447E-4 0.004615384615384615 0.0
4.4444444444444447E-4 0.005 0.0
4.4444444444444447E-4 0.005111111111111111 0.0
4.4444444444444447E-4 0.005222222222222223 0.0
4.4444444444444447E-4 0.005333333333333333 0.0
4.4444444444444447E-4 0.0054444444444444445 0.0
4.4444444444444447E-4 0.005555555555555556 0.0
4.4444444444444447E-4 0.005666666666666667 0.0
4.4444444444444447E-4 0.0057777777777777775 0.0
4.4444444444444447E-4 0.005888888888888889 0.0
4.4444444444444447E-4 0.006 0.0
4.4444444444444447E-4 0.01711111111111111 0.0
4.4444444444444447E-4 0.028222222222222225 0.0
4.4444444444444447E-4 0.03933333333333333 0.0
4.4444444444444447E-4 0.050444444444444445 0.0
4.4444444444444447E-4 0.06155555555555556 0.0
4.4444444444444447E-4 0.07266666666666667 0.0
4.4444444444444447E-4 0.08377777777777778 0.0
4.4444444444444447E-4 0.0948888888888889 0.0
4.4444444444444447E-4 0.10600000000000001 0.0
4.4444444444444447E-4 0.10611111111111113 0.0
4.4444444444444447E-4 0.10622222222222223 0.0
4.4444444444444447E-4 0.10633333333333335 0.0
4.4444444444444447E-4 0.10644444444444445 0.0
4.4444444444444447E-4 0.10655555555555557 0.0
4.4444444444444447E-4 0.10666666666666667 0.0
4.4444444444444447E-4 0.10677777777777779 0.0
4.4444444444444447E-4 0.1068888888888889 0.0
4.4444444444444447E-4 0.10700000000000001 0.0
5.555555555555556E-4 0.0 0.0
5.555555555555556E-4 3.846153846153846E-4 0.0
5.555555555555556E-4 7.692307692307692E-4 0.0
5.555555555555556E-4 0.0011538461538461537 0.0
5.555555555555556E-4 0.0015384615384615385 0.0
5.555555555555556E-4 0.0019230769230769232 0.0
5.555555555555556E-4 0.0023076923076923075 0.0
5.555555555555556E-4 0.002692307692307692 0.0
5.555555555555556E-4 0.003076923076923077 0.0
5.555555555555556E-4 0.0034615384615384616 0.0
5.555555555555556E-4 0.0038461538461538464 0.0
5.555555555555556E-4 0.004230769230769231 0.0
5.555555555555556E-4 0.004615384615384615 0.0
5.555555555555556E-4 0.005 0.0
5.555555555555556E-4 0.005111111111111111 0.0
5.555555555555556E-4 0.005222222222222223 0.0
5.555555555555556E-4 0.005333333333333333 0.0
5.555555555555556E-4 0.0054444444444444445 0.0
5.555555555555556E-4 0.005555555555555556 0.0
5.555555555555556E-4 0.005666666666666667 0.0
5.555555555555556E-4 0.0057777777777777775 0.0
5.555555555555556E-4 0.005888888888888889 0.0
5.555555555555556E-4 0.006 0.0
5.555555555555556E-4 0.01711111111111111 0.0
5.555555555555556E-4 0.028222222222222225 0.0
5.555555555555556E-4 0.03933333333333333 0.0
5.555555555555556E-4 0.050444444444444445 0.0
5.555555555555556E-4 0.06155555555555556 0.0
[...]
POINT_DATA 1353
SCALARS Temperatura float 1
LOOKUP_TABLE default
144.65404655568977
144.5300397790869
144.404141080652
144.27630661978057
144.1464797287513
144.01458114412978
143.88050040853742
143.74407998869998
143.60508722435543
143.46314968448957
143.31767015318908
143.16743632082571
143.01076785509989
142.8382584200418
142.65117364392069
142.4769721465924
142.30624942892442
142.1373117587854
141.96904878528142
141.80067185741152
141.63152410982556
141.4610162112377
141.2885975367319
121.99510272806396
121.80083884689572
121.8339803286288
121.82575329611527
121.8280830468671
121.82625319437142
121.83197451847386
121.80129542587156
119.42593668317156
119.40480742435477
119.38392810600368
119.36324678491607
119.34271462610431
119.32228798176948
119.30192989968135
119.28161108088632
119.2613103989722
119.24101512965679
144.66155795608685
144.53754605306491
144.41164142799073
144.28380170462967
144.1539703261785
144.02206841056437
143.88798600059215
143.751567044818
143.61257956898262
143.47066209113115
143.32519749130822
143.1751229037805
143.01821481516097
142.84851538299802
142.67344775044378
142.50046081596344
142.33050529904693
142.16202154842608
141.99409922289544
141.82600739430302
141.6571158324681
141.48684681563142
141.31465435100844
122.01413575444712
121.82216840410233
121.854713036617
121.84664283988178
121.84892713873437
121.84712649437972
121.85277309223927
121.82237486478525
119.446149569375
119.42504272041063
119.4041855365572
119.38352475144677
119.36301046210666
119.34259826362693
119.32225073963367
119.3019383532539
119.28163988328839
119.26134258081859
144.66925347350838
144.5452396684939
144.41933244235597
144.29149208275342
144.16166269252815
144.0297663943416
143.89569502093292
143.7592957577018
143.62034360343853
143.47848879284118
143.3331435925158
143.18330729268686
143.02680312298492
142.86031144547962
142.690603773253
142.5214808373261
142.35344809772542
142.18629220112805
142.0194120330495
141.85222264402555
141.6841591107171
141.51467296151688
141.34322886141146
122.0295147230698
121.84452241360175
121.87526070139711
121.86766515066107
121.86981186403398
121.86809975943868
121.87351955548087
121.84397715889371
119.46612206230327
119.44509259424689
119.42431172021054
119.40372208432358
119.38327054562566
119.36291047432634
119.3426031561651
119.3223184448865
119.30203492112898
119.28173981631014
144.67713410339175
144.55312048132626
144.42721397084748
144.29937754088985
144.1695565320783
144.03767468748134
143.90362671394757
143.7672652179047
143.6283760874427
143.48662953422667
143.3414863907214
143.19201287265213
143.03639557278876
142.87281279695713
142.70691606803237
142.54107957682044
142.3755797979789
142.21035918137255
142.0451069032595
141.87938164456455
141.7126934892828
141.5445265865484
141.37435313311468
122.04122740750219
121.86790568781883
121.89562165083551
121.88882081503012
121.89073699617735
121.88917325345886
121.8942133484164
121.86610371351456
119.48585067345861
119.46495829438732
119.44431214864517
119.42384756372164
119.40350583930224
119.38323678032613
119.3629998232236
119.3427641466592
119.32250827349947
119.30221956910377
144.68520028813577
144.56118837986187
144.43528572996624
144.30745771823518
144.17765135725864
144.0457925793053
143.91177995673323
143.77547347860454
143.63667336861877
143.49507828810903
143.35020752039637
143.20123637321663
143.04677989370245
142.88583917672312
142.72312508258938
142.5602703663707
142.3974070996018
142.23449553047925
142.07132629531318
141.90756020604857
141.7427669886258
141.5764522912127
141.40808038173665
122.04925388472094
121.89232612431385
121.91579311702165
121.91011079508793
121.91170215002101
121.91034740705072
121.91485353048448
121.88875685206031
119.5053294308738
119.48464255723316
119.46419717739954
119.443917167884
119.42373575786867
119.40359823321278
119.38346226717488
119.36329689869743
119.3430811654083
119.32280296379938
144.69345212686108
144.5694431698328
144.44354732571648
144.31573210657086
144.18594649095823
144.05411909267315
143.92015321599678
143.78391786211608
143.64523074866997
143.50382550067891
143.3592896122655
143.21094251167779
143.0577939751523
142.89931481643222
142.7394954530419
142.57946693969907
142.4192874472069
142.25891249249557
142.0981795650468
141.93680938179276
141.77441192836798
141.61049493541873
141.44448544809188
122.05356638979508
121.91779475163186
121.93577122130043
121.93153643383481
121.93270677836888
121.93162282483395
121.93543875592036
121.91193990362855
119.52454956016474
119.50415090543521
119.4839843141439
119.46395647579449
119.44399003588262
119.42402589824042
119.40402135680158
119.38394685494195
119.3637831179772
119.34351927586975
144.7018894746471
144.57788453446804
144.4519982523665
144.32420005506322
144.1944410760516
144.0626530060865
143.92874457869922
143.79259510123836
143.65404235762904
143.51285970523105
143.36871207792652
143.22108195960953
143.06931685662792
142.91318382938155
142.7561164644545
142.59884150350115
142.4413866593407
142.28371354896174
142.12569836189397
141.9671152772522
141.80761101253393
141.6466799225077
141.4836661071664
122.05412893976698
121.9443258397479
121.95555094089352
121.95309946614273
121.95375016574259
121.9530002975577
121.95596723337536
121.9356573484052
119.54349895345176
119.52349449300647
119.503702840706
119.4840049411933
119.4643115789588
119.44456220377998
119.42471768419102
119.40475270798986
119.38465149670968
119.36440539710328
144.71051199365675
144.58651202346863
144.4606378882348
144.3328607759267
144.20313408785597
144.07139287701509
143.93755180828026
143.8015014232573
143.66310137751248
143.52216803062694
143.3784507164588
143.23160129312157
143.08125374208907
142.9273900953362
142.77299613009507
142.6184375240259
142.4637399924126
142.30888841542807
142.1538100541322
141.99835276417707
141.84224376272493
141.68497474983235
141.52574606747066
122.05089649690096
121.97193713682367
121.9751260404889
121.97480203997196
121.97483141746045
121.97448082218872
121.97643665894941
121.95991506009355
119.56216128047426
119.5426970271923
119.52340318234306
119.50412346920692
119.48475967806577
119.46526193783849
119.4456014311295
119.4257610158875
119.40573060119574
119.3855048590504
144.7193191824499
144.59532505309954
144.46946549328266
144.34171335040816
144.21202434808507
144.08033707017404
143.94657240452398
143.8106326528588
143.6724003158277
143.53173652090612
143.3884787488671
143.24244728322086
143.0935254018769
142.94187346860755
142.79009733517566
142.63822341696573
142.4862932957845
142.3343301898385
142.18232984494392
142.03024666418173
141.87796177955198
141.72520258619733
141.5708814260352
122.04381319735451
122.00065035956004
121.99448893450922
121.99664675744484
121.99594943995432
121.99606563659626
121.99684410027022
121.98472072795393
119.58051443483645
119.56180902929461
119.54318415920683
119.52440161859636
119.50541183802443
119.48619188385042
119.46673121470732
119.44702477339963
119.42707015248816
119.4068663032239
144.7283103950235
144.60432291049548
144.47848020904513
144.35075673508246
144.2211105399972
144.08948378890037
143.9558036659374
143.81998433449937
143.68193126918518
143.5415505344138
143.39876808161014
143.2535683244752
143.10606164709807
142.95657059910883
142.807357840266
142.65812422434152
142.5089356220762
142.35986162081787
142.21097732407964
142.06236638942326
141.91412606877813
141.76637593758755
126.1029537677674
126.1029537677674
126.1029537677674
126.1029537677674
126.1029537677674
126.1029537677674
126.1029537677674
126.1029537677674
126.1029537677674
126.1029537677674
119.58106978200429
119.56320261730352
119.54495870438791
119.52636142175507
119.50742807630384
119.48817152246257
119.46860108930808
119.44872313493177
119.42854137956112
146.00160250988506
145.8796388580353
145.75935902086675
145.64078482794474
145.52395253340129
145.40891298829206
145.29573182913688
145.18448950645194
145.07528079687063
144.96821309703262
144.86340210996434
144.76096237481607
144.66098991568788
144.5635395249602
144.46819829142785
144.37310049845217
144.2782422455856
144.18361871437807
144.08922367300585
143.99504864742482
143.90108155334886
143.80730433558492
126.1029537677674
126.1029537677674
126.1029537677674
126.1029537677674
126.1029537677674
126.1029537677674
126.1029537677674
126.1029537677674
126.1029537677674
126.1029537677674
122.06503679446293
122.03980771910098
122.0151824445227
121.99115259691756
121.9677117502723
121.94485498615636
121.92257864049715
121.90088015150336
121.87975796796418
146.83001564386538
146.70774199642463
146.5861807034083
146.46532345894687
146.3451561909579
146.2256588589017
146.10680518259306
145.9885623471648
145.87089077777657
145.7537441717892
145.63707016461865
145.52081232584874
145.40491424734222
145.28932510609792
145.17477007139084
145.0602702392021
144.94582286737923
144.83142541474285
144.7170756732277
144.60277198979048
144.48851363346077
144.37430142947335
126.1029537677674
126.1029537677674
126.1029537677674
126.1029537677674
126.1029537677674
126.1029537677674
126.1029537677674
126.1029537677674
126.1029537677674
126.1029537677674
122.09698583371552
122.07662784639666
122.05619793446351
122.03569930053683
122.01513447028749
121.99450541278979
121.97381361022515
121.95306010001899
121.93224550038386
147.26992691083046
147.1476886111152
147.02605562920473
146.90503039047562
146.7846169237122
146.66482096775965
146.54565011913215
146.42711400994864
146.30922449279544
146.19199578376458
146.07544446355755
145.95958914843268
145.84444962068187
145.73004557129283
145.61692031596934
145.50389544626856
145.39097243454557
145.27815271462924
145.16543764761713
145.0528284635232
144.94032616387017
144.82793135243725
126.1029537677674
126.1029537677674
126.1029537677674
126.1029537677674
126.1029537677674
126.1029537677674
126.1029537677674
126.1029537677674
126.1029537677674
126.1029537677674
122.09677860304558
122.07518729289784
122.05369813237651
122.032309998267
122.011021988656
121.98983338979936
121.96874365675289
121.94775240155842
121.92685938603148
147.51750835106077
147.39526777531745
147.2735249178904
147.152279130948
147.03152923796605
146.91127349014684
146.79150950519482
146.67223419062668
146.55344365706216
146.4351331336725
146.31729691184833
146.19992836725876
146.08302011752747
145.9665642771188
145.85123988708034
145.73598786784714
145.62080753104343
145.5056981925333
145.39065918100906
145.2756898530714
145.16078961881504
145.0459579867395
126.1029537677674
126.1029537677674
126.1029537677674
126.1029537677674
126.1029537677674
126.1029537677674
126.1029537677674
126.1029537677674
126.1029537677674
126.1029537677674
122.09678070655184
122.0755116081914
122.05429839561442
122.03314141813905
122.01204095513768
121.99099722521672
121.97001039164456
121.94908056569756
121.92820780871959
147.650074204925
147.5278319702564
147.40602978332228
147.28466784781628
147.16374645308028
147.04326598992304
146.92322697309154
146.8036300700753
146.68447613511373
146.56576624551752
146.44750173367967
146.3296842015677
146.21231550232454
146.09539769893982
145.97961801287917
145.86391235390442
145.74828092497552
145.6327239292786
145.51724156814453
145.4018340372156
145.28650151977664
145.17124417486718
126.1029537677674
126.1029537677674
126.1029537677674
126.1029537677674
126.1029537677674
126.1029537677674
126.1029537677674
126.1029537677674
126.1029537677674
126.1029537677674
122.09681020166487
122.07545665214867
122.05417132298608
122.03295408616974
122.01180483532717
121.99072348315052
121.96970995985684
121.94876421222757
121.92788620301175
147.71496202819517
147.59272016176135
147.47089227416208
147.34947837269019
147.22847840898552
147.10789227338725
146.98771978682956
146.86796069026227
146.74861463177652
146.62968115209165
146.5111596701094
146.39304947213827
146.27534970907058
146.15805939866883
146.04188643374005
145.9257834769311
145.80975043349662
145.6937872077363
145.57789370349747
145.4620698251789
145.34631547954618
145.23063057904207
126.1029537677674
126.1029537677674
126.1029537677674
126.1029537677674
126.1029537677674
126.1029537677674
126.1029537677674
126.1029537677674
126.1029537677674
126.1029537677674
122.09679539423233
122.07546439282669
122.05419826020727
122.03299702134669
122.01186069409871
121.99078928996923
121.96978281458497
121.94884126799016
121.92796464483258
147.73434189481878
147.6120996988558
147.49026285616628
147.36883143663954
147.24780550318744
147.1271851150036
147.00697033227635
146.88716122241343
146.76775786775357
146.64876037451657
146.53016888222672
146.41198357189788
146.294204670908
146.1768324560168
146.06057725860214
145.9443920905898
145.82827698882372
145.71223199061342
145.59625713352514
145.48035245492358
145.3645179911064
145.2487537756909
126.1029537677674
126.1029537677674
126.1029537677674
126.1029537677674
126.1029537677674
126.1029537677674
126.1029537677674
126.1029537677674
126.1029537677674
126.1029537677674
122.09680213881634
122.07546377490938
122.0541913951554
122.03298496536178
122.01184445517355
121.99076983767227
121.96976108912908
121.94881818884707
121.92794111906169
147.71496202819498
147.59272016176106
147.47089227416174
147.34947837268973
147.2284784089848
147.10789227338617
146.98771978682822
146.86796069026076
146.74861463177484
146.62968115208963
146.51115967010696
146.39304947213535
146.27534970906717
146.15805939866493
146.04188643373564
145.92578347692623
145.8097504334914
145.6937872077307
145.57789370349155
145.46206982517276
145.34631547953995
145.23063057903573
126.1029537677674
126.1029537677674
126.1029537677674
126.1029537677674
126.1029537677674
126.1029537677674
126.1029537677674
126.1029537677674
126.1029537677674
126.1029537677674
122.0967953942205
122.07546439281485
122.05419826019543
122.03299702133482
122.0118606940868
121.99078928995723
121.96978281457292
121.9488412679781
121.92796464482052
147.6500742049318
147.5278319702632
147.4060297833291
147.2846678478232
147.1637464530873
147.04326598993023
146.9232269730988
146.8036300700825
146.6844761351209
146.5657662455247
146.44750173368703
146.32968420157528
146.2123155023323
146.09539769894783
145.97961801288747
145.8639123539129
145.7482809249842
145.63272392928758
145.51724156815368
145.40183403722483
145.28650151978582
145.1712441748763
126.1029537677674
126.1029537677674
126.1029537677674
126.1029537677674
126.1029537677674
126.1029537677674
126.1029537677674
126.1029537677674
126.1029537677674
126.1029537677674
122.09681020162797
122.0754566521116
122.0541713229488
122.03295408613224
122.01180483528945
121.99072348311266
121.96970995981889
121.94876421218954
121.92788620297372
147.51750835107134
147.39526777532805
147.27352491790114
147.15227913095882
147.03152923797686
146.91127349015747
146.7915095052054
146.67223419063717
146.5534436570725
146.43513313368257
146.31729691185794
146.19992836726786
146.083020117536
145.9665642771268
145.85123988708787
145.73598786785436
145.62080753105042
145.50569819254002
145.39065918101565
145.27568985307786
145.16078961882147
145.04595798674583
126.1029537677674
126.1029537677674
126.1029537677674
126.1029537677674
126.1029537677674
126.1029537677674
126.1029537677674
126.1029537677674
126.1029537677674
126.1029537677674
122.09678070654897
122.07551160818856
122.05429839561162
122.03314141813632
122.01204095513502
121.99099722521417
121.97001039164206
121.94908056569503
121.92820780871705
147.26992691085528
147.14768861113998
147.02605562922946
146.90503039050031
146.78461692373682
146.6648209677842
146.54565011915665
146.42711400997308
146.30922449281994
146.19199578378914
146.0754444635822
145.9595891484574
145.84444962070665
145.73004557131767
145.61692031599415
145.50389544629337
145.39097243457024
145.2781527146536
145.1654376476413
145.05282846354726
144.94032616389393
144.82793135246072
126.1029537677674
126.1029537677674
126.1029537677674
126.1029537677674
126.1029537677674
126.1029537677674
126.1029537677674
126.1029537677674
126.1029537677674
126.1029537677674
122.09677860303998
122.07518729289221
122.05369813237083
122.0323099982613
122.01102198865027
121.98983338979359
121.96874365674711
121.94775240155265
121.92685938602573
146.83001564389664
146.7077419964559
146.5861807034397
146.46532345897842
146.34515619098963
146.22565885893363
146.10680518262518
145.98856234719702
145.87089077780894
145.7537441718217
145.63707016465125
145.5208123258815
145.40491424737525
145.28932510613123
145.1747700714245
145.06027023923608
144.9458228674135
144.8314254147775
144.71707567326257
144.60277198982556
144.48851363349596
144.37430142950856
126.1029537677674
126.1029537677674
126.1029537677674
126.1029537677674
126.1029537677674
126.1029537677674
126.1029537677674
126.1029537677674
126.1029537677674
126.1029537677674
122.09698583369125
122.07662784637225
122.05619793443898
122.03569930051219
122.01513447026281
121.99450541276511
121.97381361020048
121.95306009999442
121.93224550035929
146.00160250989302
145.87963885804328
145.75935902087474
145.64078482795276
145.52395253340924
145.40891298829993
145.29573182914464
145.18448950645964
145.0752807968783
144.9682130970403
144.86340210997204
144.76096237482378
144.6609899156956
144.5635395249679
144.46819829143544
144.37310049845968
144.278242245593
144.1836187143852
144.08922367301295
143.99504864743182
143.90108155335565
143.8073043355916
126.1029537677674
126.1029537677674
126.1029537677674
126.1029537677674
126.1029537677674
126.1029537677674
126.1029537677674
126.1029537677674
126.1029537677674
126.1029537677674
122.06503679446492
122.03980771910295
122.01518244452465
121.99115259691952
121.96771175027419
121.94485498615816
121.92257864049886
121.90088015150495
121.87975796796573
144.7283103950243
144.60432291049628
144.4784802090459
144.3507567350831
144.22111053999782
144.08948378890108
143.9558036659383
143.8199843345004
143.68193126918638
143.54155053441514
143.3987680816115
143.25356832447667
143.10606164709966
142.95657059911045
142.80735784026777
142.65812422434345
142.50893562207827
142.35986162082025
142.21097732408205
142.06236638942576
141.91412606878077
141.76637593759025
126.1029537677674
126.1029537677674
126.1029537677674
126.1029537677674
126.1029537677674
126.1029537677674
126.1029537677674
126.1029537677674
126.1029537677674
126.1029537677674
119.58106978198602
119.5632026172854
119.54495870436996
119.52636142173719
119.50742807628608
119.48817152244487
119.4686010892905
119.44872313491425
119.42854137954362
144.71931918245076
144.59532505310045
144.4694654932833
144.34171335040867
144.21202434808583
144.08033707017478
143.94657240452491
143.81063265285988
143.67240031582898
143.5317365209075
143.3884787488684
143.24244728322256
143.0935254018787
142.9418734686094
142.7900973351776
142.63822341696772
142.4862932957866
142.3343301898408
142.18232984494637
142.0302466641842
141.8779617795545
141.7252025862
141.57088142603786
122.04381319736919
122.00065035961198
121.99448893452839
121.9966467574634
121.99594944002564
121.99606563661273
121.99684410026762
121.98472072795678
119.58051443481808
119.56180902927628
119.54318415918848
119.52440161857817
119.50541183800641
119.4861918838325
119.4667312146894
119.4470247733818
119.42707015247032
119.40686630320602
144.71051199365772
144.5865120234696
144.4606378882355
144.33286077592717
144.20313408785663
144.07139287701588
143.93755180828123
143.80150142325854
143.66310137751378
143.5221680306284
143.37845071646007
143.2316012931232
143.08125374209106
142.9273900953381
142.77299613009706
142.61843752402794
142.46373999241473
142.30888841543035
142.1538100541346
141.99835276417943
141.84224376272738
141.6849747498349
141.52574606747325
122.0508964969159
121.97193713687574
121.97512604050809
121.97480203999044
121.97483141753212
121.97448082220524
121.97643665894687
121.95991506009611
119.56216128045574
119.54269702717384
119.52340318232467
119.50412346918866
119.48475967804762
119.46526193782032
119.44560143111146
119.42576101586937
119.40573060117765
119.3855048590323
144.70188947464808
144.57788453446898
144.45199825236728