# vtk DataFile Version 2.0
Niestacjonarne zagadnienie cieplne - ogrzewanie wody w garnku stalowym
ASCII
DATASET UNSTRUCTURED_GRID
POINTS 1353 float
0.0 0.0 0.0
0.0 3.846153846153846E-4 0.0
0.0 7.692307692307692E-4 0.0
0.0 0.0011538461538461537 0.0
0.0 0.0015384615384615385 0.0
0.0 0.0019230769230769232 0.0
0.0 0.0023076923076923075 0.0
0.0 0.002692307692307692 0.0
0.0 0.003076923076923077 0.0
0.0 0.0034615384615384616 0.0
0.0 0.0038461538461538464 0.0
0.0 0.004230769230769231 0.0
0.0 0.004615384615384615 0.0
0.0 0.005 0.0
0.0 0.005111111111111111 0.0
0.0 0.005222222222222223 0.0
0.0 0.005333333333333333 0.0
0.0 0.0054444444444444445 0.0
0.0 0.005555555555555556 0.0
0.0 0.005666666666666667 0.0
0.0 0.0057777777777777775 0.0
0.0 0.005888888888888889 0.0
0.0 0.006 0.0
0.0 0.01711111111111111 0.0
0.0 0.028222222222222225 0.0
0.0 0.03933333333333333 0.0
0.0 0.050444444444444445 0.0
0.0 0.06155555555555556 0.0
0.0 0.07266666666666667 0.0
0.0 0.08377777777777778 0.0
0.0 0.0948888888888889 0.0
0.0 0.10600000000000001 0.0
0.0 0.10611111111111113 0.0
0.0 0.10622222222222223 0.0
0.0 0.10633333333333335 0.0
0.0 0.10644444444444445 0.0
0.0 0.10655555555555557 0.0
0.0 0.10666666666666667 0.0
0.0 0.10677777777777779 0.0
0.0 0.1068888888888889 0.0
0.0 0.10700000000000001 0.0
1.1111111111111112E-4 0.0 0.0
1.1111111111111112E-4 3.846153846153846E-4 0.0
1.1111111111111112E-4 7.692307692307692E-4 0.0
1.1111111111111112E-4 0.0011538461538461537 0.0
1.1111111111111112E-4 0.0015384615384615385 0.0
1.1111111111111112E-4 0.0019230769230769232 0.0
1.1111111111111112E-4 0.0023076923076923075 0.0
1.1111111111111112E-4 0.002692307692307692 0.0
1.1111111111111112E-4 0.003076923076923077 0.0
1.1111111111111112E-4 0.0034615384615384616 0.0
1.1111111111111112E-4 0.0038461538461538464 0.0
1.1111111111111112E-4 0.004230769230769231 0.0
1.1111111111111112E-4 0.004615384615384615 0.0
1.1111111111111112E-4 0.005 0.0
1.1111111111111112E-4 0.005111111111111111 0.0
1.1111111111111112E-4 0.005222222222222223 0.0
1.1111111111111112E-4 0.005333333333333333 0.0
1.1111111111111112E-4 0.0054444444444444445 0.0
1.1111111111111112E-4 0.005555555555555556 0.0
1.1111111111111112E-4 0.005666666666666667 0.0
1.1111111111111112E-4 0.0057777777777777775 0.0
1.1111111111111112E-4 0.005888888888888889 0.0
1.1111111111111112E-4 0.006 0.0
1.1111111111111112E-4 0.01711111111111111 0.0
1.1111111111111112E-4 0.028222222222222225 0.0
1.1111111111111112E-4 0.03933333333333333 0.0
1.1111111111111112E-4 0.050444444444444445 0.0
1.1111111111111112E-4 0.06155555555555556 0.0
1.1111111111111112E-4 0.07266666666666667 0.0
1.1111111111111112E-4 0.08377777777777778 0.0
1.1111111111111112E-4 0.0948888888888889 0.0
1.1111111111111112E-4 0.10600000000000001 0.0
1.1111111111111112E-4 0.10611111111111113 0.0
1.1111111111111112E-4 0.10622222222222223 0.0
1.1111111111111112E-4 0.10633333333333335 0.0
1.1111111111111112E-4 0.10644444444444445 0.0
1.1111111111111112E-4 0.10655555555555557 0.0
1.1111111111111112E-4 0.10666666666666667 0.0
1.1111111111111112E-4 0.10677777777777779 0.0
1.1111111111111112E-4 0.1068888888888889 0.0
1.1111111111111112E-4 0.10700000000000001 0.0
2.2222222222222223E-4 0.0 0.0
2.2222222222222223E-4 3.846153846153846E-4 0.0
2.2222222222222223E-4 7.692307692307692E-4 0.0
2.2222222222222223E-4 0.0011538461538461537 0.0
2.2222222222222223E-4 0.0015384615384615385 0.0
2.2222222222222223E-4 0.0019230769230769232 0.0
2.2222222222222223E-4 0.0023076923076923075 0.0
2.2222222222222223E-4 0.002692307692307692 0.0
2.2222222222222223E-4 0.003076923076923077 0.0
2.2222222222222223E-4 0.0034615384615384616 0.0
2.2222222222222223E-4 0.0038461538461538464 0.0
2.2222222222222223E-4 0.004230769230769231 0.0
2.2222222222222223E-4 0.004615384615384615 0.0
2.2222222222222223E-4 0.005 0.0
2.2222222222222223E-4 0.005111111111111111 0.0
2.2222222222222223E-4 0.005222222222222223 0.0
2.2222222222222223E-4 0.005333333333333333 0.0
2.2222222222222223E-4 0.0054444444444444445 0.0
2.2222222222222223E-4 0.005555555555555556 0.0
2.2222222222222223E-4 0.005666666666666667 0.0
2.2222222222222223E-4 0.0057777777777777775 0.0
2.2222222222222223E-4 0.005888888888888889 0.0
2.2222222222222223E-4 0.006 0.0
2.2222222222222223E-4 0.01711111111111111 0.0
2.2222222222222223E-4 0.028222222222222225 0.0
2.2222222222222223E-4 0.03933333333333333 0.0
2.2222222222222223E-4 0.050444444444444445 0.0
2.2222222222222223E-4 0.06155555555555556 0.0
2.2222222222222223E-4 0.07266666666666667 0.0
2.2222222222222223E-4 0.08377777777777778 0.0
2.2222222222222223E-4 0.0948888888888889 0.0
2.2222222222222223E-4 0.10600000000000001 0.0
2.2222222222222223E-4 0.10611111111111113 0.0
2.2222222222222223E-4 0.10622222222222223 0.0
2.2222222222222223E-4 0.10633333333333335 0.0
2.2222222222222223E-4 0.10644444444444445 0.0
2.2222222222222223E-4 0.10655555555555557 0.0
2.2222222222222223E-4 0.10666666666666667 0.0
2.2222222222222223E-4 0.10677777777777779 0.0
2.2222222222222223E-4 0.1068888888888889 0.0
2.2222222222222223E-4 0.10700000000000001 0.0
3.333333333333334E-4 0.0 0.0
3.333333333333334E-4 3.846153846153846E-4 0.0
3.333333333333334E-4 7.692307692307692E-4 0.0
3.333333333333334E-4 0.0011538461538461537 0.0
3.333333333333334E-4 0.0015384615384615385 0.0
3.333333333333334E-4 0.0019230769230769232 0.0
3.333333333333334E-4 0.0023076923076923075 0.0
3.333333333333334E-4 0.002692307692307692 0.0
3.333333333333334E-4 0.003076923076923077 0.0
3.333333333333334E-4 0.0034615384615384616 0.0
3.333333333333334E-4 0.0038461538461538464 0.0
3.333333333333334E-4 0.004230769230769231 0.0
3.333333333333334E-4 0.004615384615384615 0.0
3.333333333333334E-4 0.005 0.0
3.333333333333334E-4 0.005111111111111111 0.0
3.333333333333334E-4 0.005222222222222223 0.0
3.333333333333334E-4 0.005333333333333333 0.0
3.333333333333334E-4 0.0054444444444444445 0.0
3.333333333333334E-4 0.005555555555555556 0.0
3.333333333333334E-4 0.005666666666666667 0.0
3.333333333333334E-4 0.0057777777777777775 0.0
3.333333333333334E-4 0.005888888888888889 0.0
3.333333333333334E-4 0.006 0.0
3.333333333333334E-4 0.01711111111111111 0.0
3.333333333333334E-4 0.028222222222222225 0.0
3.333333333333334E-4 0.03933333333333333 0.0
3.333333333333334E-4 0.050444444444444445 0.0
3.333333333333334E-4 0.06155555555555556 0.0
3.333333333333334E-4 0.07266666666666667 0.0
3.333333333333334E-4 0.08377777777777778 0.0
3.333333333333334E-4 0.0948888888888889 0.0
3.333333333333334E-4 0.10600000000000001 0.0
3.333333333333334E-4 0.10611111111111113 0.0
3.333333333333334E-4 0.10622222222222223 0.0
3.333333333333334E-4 0.10633333333333335 0.0
3.333333333333334E-4 0.10644444444444445 0.0
3.333333333333334E-4 0.10655555555555557 0.0
3.333333333333334E-4 0.10666666666666667 0.0
3.333333333333334E-4 0.10677777777777779 0.0
3.333333333333334E-4 0.1068888888888889 0.0
3.333333333333334E-4 0.10700000000000001 0.0
4.4444444444444447E-4 0.0 0.0
4.4444444444444447E-4 3.846153846153846E-4 0.0
4.4444444444444447E-4 7.692307692307692E-4 0.0
4.4444444444444447E-4 0.0011538461538461537 0.0
4.4444444444444447E-4 0.0015384615384615385 0.0
4.4444444444444447E-4 0.0019230769230769232 0.0
4.4444444444444447E-4 0.0023076923076923075 0.0
4.4444444444444447E-4 0.002692307692307692 0.0
4.4444444444444447E-4 0.003076923076923077 0.0
4.4444444444444447E-4 0.0034615384615384616 0.0
4.4444444444444447E-4 0.0038461538461538464 0.0
4.4444444444444447E-4 0.004230769230769231 0.0
4.4444444444444447E-4 0.004615384615384615 0.0
4.4444444444444447E-4 0.005 0.0
4.4444444444444447E-4 0.005111111111111111 0.0
4.4444444444444447E-4 0.005222222222222223 0.0
4.4444444444444447E-4 0.005333333333333333 0.0
4.4444444444444447E-4 0.0054444444444444445 0.0
4.4444444444444447E-4 0.005555555555555556 0.0
4.4444444444444447E-4 0.005666666666666667 0.0
4.4444444444444447E-4 0.0057777777777777775 0.0
4.4444444444444447E-4 0.005888888888888889 0.0
4.4444444444444447E-4 0.006 0.0
4.4444444444444447E-4 0.01711111111111111 0.0
4.4444444444444447E-4 0.028222222222222225 0.0
4.4444444444444447E-4 0.03933333333333333 0.0
4.4444444444444447E-4 0.050444444444444445 0.0
4.4444444444444447E-4 0.06155555555555556 0.0
4.4444444444444447E-4 0.07266666666666667 0.0
4.4444444444444447E-4 0.08377777777777778 0.0
4.4444444444444447E-4 0.0948888888888889 0.0
4.4444444444444447E-4 0.10600000000000001 0.0
4.4444444444444447E-4 0.10611111111111113 0.0
4.4444444444444447E-4 0.10622222222222223 0.0
4.4444444444444447E-4 0.10633333333333335 0.0
4.4444444444444447E-4 0.10644444444444445 0.0
4.4444444444444447E-4 0.10655555555555557 0.0
4.4444444444444447E-4 0.10666666666666667 0.0
4.4444444444444447E-4 0.10677777777777779 0.0
4.4444444444444447E-4 0.1068888888888889 0.0
4.4444444444444447E-4 0.10700000000000001 0.0
5.555555555555556E-4 0.0 0.0
5.555555555555556E-4 3.846153846153846E-4 0.0
5.555555555555556E-4 7.692307692307692E-4 0.0
5.555555555555556E-4 0.0011538461538461537 0.0
5.555555555555556E-4 0.0015384615384615385 0.0
5.555555555555556E-4 0.0019230769230769232 0.0
5.555555555555556E-4 0.0023076923076923075 0.0
5.555555555555556E-4 0.002692307692307692 0.0
5.555555555555556E-4 0.003076923076923077 0.0
5.555555555555556E-4 0.0034615384615384616 0.0
5.555555555555556E-4 0.0038461538461538464 0.0
5.555555555555556E-4 0.004230769230769231 0.0
5.555555555555556E-4 0.004615384615384615 0.0
5.555555555555556E-4 0.005 0.0
5.555555555555556E-4 0.005111111111111111 0.0
5.555555555555556E-4 0.005222222222222223 0.0
5.555555555555556E-4 0.005333333333333333 0.0
5.555555555555556E-4 0.0054444444444444445 0.0
5.555555555555556E-4 0.005555555555555556 0.0
5.555555555555556E-4 0.005666666666666667 0.0
5.555555555555556E-4 0.0057777777777777775 0.0
5.555555555555556E-4 0.005888888888888889 0.0
5.555555555555556E-4 0.006 0.0
5.555555555555556E-4 0.01711111111111111 0.0
5.555555555555556E-4 0.028222222222222225 0.0
5.555555555555556E-4 0.03933333333333333 0.0
5.555555555555556E-4 0.050444444444444445 0.0
5.555555555555556E-4 0.06155555555555556 0.0
[...]
POINT_DATA 1353
SCALARS Temperatura float 1
LOOKUP_TABLE default
108.71988246857282
108.5886585215272
108.45591770774242
108.32162030243504
108.1857168544229
108.04813922943474
107.90879360129097
107.76754785010408
107.62420934732985
107.47847473464039
107.32986101698536
107.17741233903016
107.01976993310335
106.84997804938699
106.66956055539879
106.49809324779751
106.32886078147158
106.16059453509524
105.99243235162996
105.82373321897548
105.65394347074135
105.48255274617027
105.30907591022137
85.65954555207693
85.45766126202922
85.49226979516393
85.48372888354557
85.48602985752098
85.48463184813188
85.4884633616305
85.46844582624716
83.90582677358707
83.89209032600122
83.87852684632843
83.8651050206627
83.85179539763736
83.83857164744596
83.82541147541491
83.81229720209663
83.79921607778287
83.78616042152755
108.72524459657534
108.59401503743197
108.46126772164824
108.32696437431608
108.19105562590522
108.05347365633776
107.91412504297132
107.77287880449006
107.62954296942338
107.48382225520842
107.33522025837657
107.18288806832216
107.0250854975815
106.85729878539765
106.6853988876237
106.51481320613446
106.34614864320267
106.17823184052423
106.0103422240705
105.84187936595707
105.67230772392305
105.50112394442498
105.3278445657107
85.67111630205902
85.47158117195976
85.50557966581783
85.49719855155733
85.49945483671391
85.4980799699557
85.50186104809343
85.48202955447809
83.91883630814256
83.90511315329738
83.89156281392243
83.87815317490782
83.86485413811575
83.85163891517237
83.83848493026049
83.8253743598316
83.81229439679522
83.79923734531583
108.73077018154233
108.5995381229319
108.46678729545933
108.33248204579941
108.19657357171842
108.05899487713636
107.91965395907685
107.77842239574413
107.635113658695
107.48944174748334
107.34093300068423
107.18878631719431
107.03130215117898
106.86584462091396
106.69781619985733
106.53005022636988
106.36284088066468
106.19596819133955
106.02893087633349
105.86123117207751
105.69237765199068
105.52188398811617
105.34926927229947
85.67896981379022
85.48657048564363
85.5187225162245
85.51082504796386
85.51294606055562
85.51164132869327
85.51526934308234
85.49600460171271
83.93172685010653
83.91805010563223
83.90454556218596
83.89117862833268
83.87791724489583
83.86473327580241
83.8516033589839
83.83850930178556
83.8254381771935
83.81238227757734
108.73646024430967
108.60522766030184
108.47247630598636
108.33817313997777
108.20227044828549
108.06470255702179
107.9253797481192
107.78417787416556
107.64091894090443
107.49533269670648
107.34698301078748
107.195122406022
107.03832051872094
106.87502250340194
106.70982854728194
106.54453664723374
106.37928261450034
106.21395948558849
106.04827277333303
105.88182576643106
105.71417680697395
105.54485626620442
105.3733794989691
85.68309446728746
85.50263389310523
85.53169670634897
85.52460895239399
85.52650333065526
85.52531612335581
85.52868789139049
85.51037186615976
83.94449626281062
83.93090191437304
83.91747839188449
83.9041866734678
83.89099133266943
83.87786207338304
83.86477441302276
83.85170975008744
83.83865512287652
83.82560290517907
108.74231527024264
108.61108358238177
108.47833451959742
108.34403735754204
108.20814585218312
108.07059611552562
107.93130150410698
107.79014368699707
107.64695593277641
107.501490294977
107.35335627493166
107.20189203133278
107.04598674202579
106.8846983432101
106.7219489506547
106.55897474366948
106.3958148679312
106.23237972447231
106.0684498081631
105.90370101747594
105.7377298856088
105.57007257543788
105.40022432624603
85.68347130314973
85.51977909653877
85.54449951543413
85.53855121300283
85.54012630555023
85.5391046730453
85.5421160905804
85.5251328233287
83.95714088592972
83.94367019115512
83.9303675283562
83.91718694170784
83.90408811526886
83.89103801367305
83.87801108558982
83.86498864531454
83.85195804380714
83.83891197715688
108.74833541877284
108.6171057573334
108.4843616119702
108.35007427556182
108.21419922246783
108.07667475321608
107.93741798839497
107.79631769978889
107.65322090300883
107.5079070475393
107.36003912010047
107.20906756330542
107.05418106472732
106.89480906165682
106.73434935612319
106.57363628969733
106.41266456384243
106.25134876453038
106.08950881181627
105.92686602116265
105.7630421730286
105.59756237350022
105.42987319815806
85.68007380402766
85.53801687552627
85.55712712194541
85.55265315300913
85.55381449759253
85.55300742169999
85.55555307606836
85.5402895791355
83.96965534233613
83.95635821207598
83.94322350524537
83.93019485835511
83.91722553779289
83.90427984856355
83.8913320086055
83.87836418547103
83.86536475410097
83.85232715864889
108.75452062230603
108.62329394831303
108.4905571661991
108.35628335112017
108.22042984792142
108.08293746886585
107.94372765446842
107.80269730256823
107.65970919587889
107.51457393821296
107.36701528335314
107.21661084350905
107.06281161430681
106.90530301842344
106.74707306211407
106.58861529569991
106.42991339869943
106.27089735300217
106.11142552217687
105.95126622552377
105.79006867681395
105.62733457046801
105.46241755545833
85.67286743300528
85.55736122006597
85.56957456429036
85.5669164829182
85.56756726751733
85.56702494594803
85.56899769648965
85.55584495800669
83.98203221664534
83.96897263172406
83.95606395897963
83.94323423182986
83.93042950857775
83.91761319399555
83.90476168318804
83.89185971950606
83.8788977980222
83.86587070673278
108.76087063694581
108.62964780196212
108.49692066778576
108.36266392556536
108.2268368765625
108.08938307779871
107.95022869150593
107.80927947685568
107.66641540456838
107.52148081895953
107.3742656942231
107.22448033533878
107.07180402817166
106.91612614303904
106.7601015099048
106.60390776707705
106.44754037151827
106.29096074674585
106.13408061705054
105.97673962062333
105.8186623561127
105.65934008109897
105.49797416979658
85.66180870875121
85.57782959055014
85.58183566639471
85.58134332282322
85.58138381508653
85.58115796808742
85.58244847291019
85.57180264960361
83.99426151772627
83.98152764323181
83.96891927064145
83.95634188137156
83.94373584596963
83.93107113254396
83.91833039770393
83.90550333883657
83.89258389807019
83.8795688784306
108.76738507134462
108.63616684793867
108.50345150132983
108.36921522883587
108.23341932638203
108.09601023399361
107.95691907106541
107.81606087714776
107.6733335818763
107.52861667035496
107.3817692749078
107.23263429206189
107.08109423338811
106.92721976124525
106.77338054225405
106.61945046232478
106.46545147902498
106.31139046673545
106.15725077558953
106.0029782490445
105.84844857952017
105.69338689708248
105.53669190986248
85.64684335258274
85.5994434295528
85.59390289453452
85.59593624404471
85.59526316245335
85.59540737831162
85.59590352880667
85.58816746221092
84.00632974663213
83.99405301130021
83.98184945402305
83.96957196548755
83.95719137914814
83.94469398895176
83.93207352687966
83.9193270110707
83.9064530381846
83.89345100358712
108.77406340523635
108.64285050260693
108.51014894947379
108.37593638394125
108.24017609702013
108.10281745457127
107.96379659593374
107.82303792691799
107.68045744544814
107.53596992131615
107.38950390833105
107.2410319160877
107.09062414319062
106.93852184707352
106.78683575696004
106.63514509136317
106.48350519652253
106.33197576110392
106.1806228328969
106.02952197276622
105.87876331609525
105.72846023808994
88.58524981680078
88.58524981680078
88.58524981680078
88.58524981680078
88.58524981680078
88.58524981680078
88.58524981680078
88.58524981680078
88.58524981680078
88.58524981680078
84.00669652111601
83.9949493864486
83.98299661561677
83.97085250602645
83.95852766411659
83.9460299768484
83.93336517244923
83.92053715606126
83.90754821153811
109.79062973324578
109.66115519202022
109.53326382274504
109.40697456478918
109.28231885069613
109.1593407607257
109.0380972101255
108.9186580304778
108.80110566464245
108.68553392503436
108.57204472641514
108.46074077754018
108.3517118732755
108.24501565408417
108.14040629658402
108.03603931136361
107.9319118225711
107.82801986247352
107.72435781984294
107.62091758169738
107.51768716102204
107.41464835432198
88.58524981680078
88.58524981680078
88.58524981680078
88.58524981680078
88.58524981680078
88.58524981680078
88.58524981680078
88.58524981680078
88.58524981680078
88.58524981680078
85.64131897207639
85.62467535486985
85.6084755901858
85.59271443527818
85.57738784896853
85.56249272737395
85.54802675066055
85.53398829089805
85.52037635646057
110.45786457057044
110.32812290336
110.19914646723977
110.07092812864208
109.94345578099072
109.81671216832045
109.69067464422871
109.56531490138762
109.44059874490182
109.31648605620995
109.19293124178604
109.06988471664658
108.94729607886008
108.82511878788627
108.70408761686457
108.58313342704479
108.46225372127502
108.34144625496106
108.22070918330031
108.10004129116423
107.97944236146286
107.85891380464999
88.58524981680078
88.58524981680078
88.58524981680078
88.58524981680078
88.58524981680078
88.58524981680078
88.58524981680078
88.58524981680078
88.58524981680078
88.58524981680078
85.66210192768101
85.64867582270776
85.63524798903627
85.62182045345219
85.60839481842086
85.59497233441846
85.58155394217141
85.56814029823077
85.55473179048991
110.8106977976254
110.68098691667936
110.55196051000122
110.42362071764347
110.29597107224183
110.1690165916358
110.04276390825983
109.91722142715066
109.792399494445
109.66831053852326
109.54496910580743
109.42239164297094
109.30059584525252
109.17959961112366
109.05997187672669
108.94046242637309
108.82107259029516
108.7018036446961
108.5826567733594
108.4636330069976
108.34473312530713
108.22595748874728
88.58524981680078
88.58524981680078
88.58524981680078
88.58524981680078
88.58524981680078
88.58524981680078
88.58524981680078
88.58524981680078
88.58524981680078
88.58524981680078
85.66195743602549
85.64771629040581
85.63358825075358
85.6195725872032
85.60566870989925
85.59187614904904
85.57819454315968
85.56462363184856
85.55116325144805
111.00932985597353
110.87961698211652
110.75050185784274
110.62198396123948
110.49406231583359
110.36673545278347
110.24000135744296
110.11385740189475
109.98830026758164
109.86332586737508
109.73892928724948
109.61510478691984
109.49184590826474
109.369145682605
109.24768765664605
109.12632385875708
109.00505368865265
108.88387655517441
108.76279188607147
108.64179914377294
108.52089785120104
108.40008763649625
88.58524981680078
88.58524981680078
88.58524981680078
88.58524981680078
88.58524981680078
88.58524981680078
88.58524981680078
88.58524981680078
88.58524981680078
88.58524981680078
85.66195880060164
85.64793057748925
85.6339849423863
85.62012211124376
85.6063422554305
85.59264550727305
85.57903196336127
85.56550168659159
85.55205470742709
111.1155520400103
110.98583777974918
110.85667496229702
110.72806380188055
110.60000458869017
110.47249770259597
110.34554363271872
110.21914300265786
110.09329660056136
109.96800541186839
109.84327064965444
109.71909377227928
109.59547647529288
109.47242065976569
109.35061483263723
109.2289050709207
109.10729156216833
108.98577449268686
108.8643540451066
108.74303039433164
108.62180370077729
108.5006740984973
88.58524981680078
88.58524981680078
88.58524981680078
88.58524981680078
88.58524981680078
88.58524981680078
88.58524981680078
88.58524981680078
88.58524981680078
88.58524981680078
85.66197822782672
85.64789419862106
85.63390089383131
85.61999822128313
85.6061861026185
85.59246447174023
85.57883327387121
85.5652924649654
85.55184201134115
111.16751926851845
111.03780533506226
110.9086220256671
110.77996938342291
110.65184740410855
110.5242560312922
110.39719514927535
110.27066457384183
110.14466404091975
110.01919319362611
109.8942515689758
109.76983858703633
109.64595354613944
109.52259562350208
109.4004703322266
109.27843774334421
109.15649778021587
109.03465036576637
108.91289542309795
108.7912328765678
108.66966265364275
108.54818468821877
88.58524981680078
88.58524981680078
88.58524981680078
88.58524981680078
88.58524981680078
88.58524981680078
88.58524981680078
88.58524981680078
88.58524981680078
88.58524981680078
85.66196842909945
85.64789929972575
85.6339186839513
85.62002658870642
85.60622301631743
85.59250796497466
85.57888142902021
85.56534339913055
85.55189386243157
111.18303337605309
111.05331916257845
110.92412863704045
110.79546189669114
110.66731903351108
110.53970013703534
110.41260529845236
110.28603461603784
110.15998820192648
110.03446619005672
109.90946874472661
109.7849960684524
109.66104840739303
109.53762605470423
109.41543632873265
109.29333937919266
109.1713352453335
109.04942396660044
108.92760558236543
108.805880131426
108.68424765111439
108.56270817567311
88.58524981680078
88.58524981680078
88.58524981680078
88.58524981680078
88.58524981680078
88.58524981680078
88.58524981680078
88.58524981680078
88.58524981680078
88.58524981680078
85.66197288042689
85.64789888594964
85.63391414080637
85.62001861349104
85.6062122749394
85.59249509828464
85.57886705870543
85.56532813332846
85.55187830116667
111.16751926851818
111.03780533506193
110.90862202566673
110.77996938342244
110.6518474041079
110.52425603129126
110.3971951492742
110.27066457384055
110.14466404091834
110.01919319362446
109.89425156897383
109.76983858703402
109.64595354613675
109.52259562349903
109.40047033222318
109.27843774334045
109.15649778021182
109.034650365762
108.91289542309332
108.791232876563
108.66966265363786
108.5481846882138
88.58524981680078
88.58524981680078
88.58524981680078
88.58524981680078
88.58524981680078
88.58524981680078
88.58524981680078
88.58524981680078
88.58524981680078
88.58524981680078
85.66196842909119
85.6478992997175
85.633918683943
85.6200265886981
85.60622301630904
85.59250796496622
85.57888142901172
85.56534339912206
85.55189386242307
111.1155520400153
110.98583777975418
110.85667496230204
110.72806380188564
110.60000458869534
110.47249770260127
110.34554363272403
110.21914300266313
110.09329660056656
109.96800541187363
109.8432706496598
109.7190937722848
109.59547647529854
109.47242065977157
109.35061483264333
109.22890507092697
109.10729156217477
108.98577449269354
108.86435404511339
108.74303039433849
108.62180370078408
108.50067409850406
88.58524981680078
88.58524981680078
88.58524981680078
88.58524981680078
88.58524981680078
88.58524981680078
88.58524981680078
88.58524981680078
88.58524981680078
88.58524981680078
85.6619782278009
85.64789419859511
85.63390089380522
85.61999822125688
85.6061861025921
85.59246447171375
85.57883327384468
85.56529246493884
85.55184201131458
111.00932985598146
110.87961698212446
110.75050185785078
110.62198396124758
110.49406231584166
110.36673545279139
110.24000135745085
110.11385740190259
109.98830026758937
109.86332586738261
109.73892928725668
109.61510478692666
109.49184590827116
109.36914568261099
109.24768765665168
109.12632385876243
109.00505368865782
108.88387655517943
108.76279188607636
108.64179914377772
108.5208978512058
108.40008763650098
88.58524981680078
88.58524981680078
88.58524981680078
88.58524981680078
88.58524981680078
88.58524981680078
88.58524981680078
88.58524981680078
88.58524981680078
88.58524981680078
85.66195880059972
85.64793057748737
85.63398494238444
85.62012211124194
85.60634225542871
85.59264550727134
85.57903196335958
85.56550168658987
85.55205470742536
110.81069779764394
110.68098691669789
110.5519605100197
110.42362071766186
110.29597107226016
110.1690165916541
110.04276390827808
109.91722142716885
109.7923994944632
109.66831053854152
109.54496910582576
109.42239164298934
109.30059584527098
109.17959961114212
109.05997187674514
108.94046242639152
108.82107259031349
108.7018036447142
108.5826567733774
108.46363300701545
108.34473312532477
108.22595748876475
88.58524981680078
88.58524981680078
88.58524981680078
88.58524981680078
88.58524981680078
88.58524981680078
88.58524981680078
88.58524981680078
88.58524981680078
88.58524981680078
85.66195743602131
85.64771629040159
85.63358825074931
85.61957258719893
85.60566870989499
85.59187614904474
85.57819454315538
85.56462363184428
85.5511632514438
110.45786457059363
110.32812290338323
110.1991464672631
110.07092812866556
109.94345578101434
109.81671216834418
109.6906746442526
109.56531490141163
109.44059874492591
109.31648605623411
109.19293124181029
109.06988471667096
108.94729607888462
108.82511878791105
108.70408761688962
108.5831334270701
108.46225372130056
108.34144625498686
108.22070918332628
108.10004129119034
107.97944236148906
107.85891380467619
88.58524981680078
88.58524981680078
88.58524981680078
88.58524981680078
88.58524981680078
88.58524981680078
88.58524981680078
88.58524981680078
88.58524981680078
88.58524981680078
85.66210192766404
85.64867582269069
85.63524798901913
85.62182045343496
85.6083948184036
85.59497233440118
85.58155394215416
85.56814029821356
85.55473179047272
109.79062973325156
109.661155192026
109.53326382275081
109.40697456479496
109.28231885070191
109.15934076073142
109.03809721013111
108.91865803048333
108.80110566464795
108.68553392503988
108.57204472642067
108.4607407775457
108.35171187328102
108.24501565408967
108.14040629658945
108.03603931136898
107.93191182257641
107.82801986247867
107.72435781984807
107.62091758170244
107.51768716102694
107.41464835432679
88.58524981680078
88.58524981680078
88.58524981680078
88.58524981680078
88.58524981680078
88.58524981680078
88.58524981680078
88.58524981680078
88.58524981680078
88.58524981680078
85.64131897207784
85.6246753548713
85.60847559018724
85.59271443527965
85.57738784896995
85.5624927273753
85.54802675066182
85.53398829089923
85.52037635646172
108.77406340523684
108.64285050260743
108.51014894947424
108.37593638394166
108.2401760970205
108.10281745457164
107.96379659593426
107.8230379269186
107.68045744544892
107.535969921317
107.389503908332
107.24103191608876
107.09062414319175
106.93852184707465
106.78683575696127
106.63514509136449
106.48350519652394
106.33197576110553
106.18062283289852
106.0295219727679
105.87876331609696
105.72846023809171
88.58524981680078
88.58524981680078
88.58524981680078
88.58524981680078
88.58524981680078
88.58524981680078
88.58524981680078
88.58524981680078
88.58524981680078
88.58524981680078
84.0066965211034
83.99494938643606
83.98299661560434
83.97085250601403
83.95852766410422
83.94602997683609
83.93336517243702
83.92053715604908
83.90754821152593
108.76738507134515
108.63616684793921
108.50345150133029
108.3692152288362
108.23341932638239
108.09601023399406
107.95691907106597
107.81606087714839
107.67333358187716
107.52861667035589
107.3817692749087
107.23263429206311
107.0810942333894
106.92721976124662
106.77338054225534
106.61945046232614
106.4654514790264
106.31139046673695
106.15725077559115
106.00297824904615
105.84844857952179
105.6933868970842
105.53669190986412
85.64684335259264
85.59944342958894
85.59390289454798
85.59593624405737
85.59526316250366
85.59540737832319
85.59590352880481
85.58816746221298
84.00632974661946
83.9940530112875
83.9818494540104
83.96957196547493
83.9571913791356
83.94469398893926
83.93207352686721
83.91932701105829
83.90645303817215
83.89345100357465
108.76087063694634
108.62964780196276
108.49692066778626
108.36266392556568
108.2268368765629
108.08938307779917
107.9502286915066
107.80927947685636
107.66641540456924
107.52148081896051
107.37426569422401
107.22448033534008
107.07180402817309
106.91612614304037
106.76010150990622
106.60390776707852
106.44754037151975
106.29096074674742
106.13408061705209
105.97673962062495
105.8186623561143
105.65934008110061
105.49797416979827
85.66180870876123
85.5778295905864
85.58183566640814
85.58134332283596
85.58138381513706
85.581157968099
85.58244847290835
85.57180264960553
83.9942615177135
83.98152764321904
83.96891927062865
83.95634188135884
83.94373584595697
83.93107113253137
83.91833039769142
83.90550333882398
83.8925838980575
83.879568878418
108.7545206223067
108.62329394831367
108.4905571661996
108.35628335112058
108.22042984792188
108.0829374688662
107.94372765446907
107.80269730256903
107.65970919587987
107.514573938214
107.36701528335418
107.21661084351051
107.06281161430822
106.90530301842489
106.74707306211558
106.58861529570137