# vtk DataFile Version 2.0
Niestacjonarne zagadnienie cieplne - ogrzewanie wody w garnku stalowym
ASCII
DATASET UNSTRUCTURED_GRID
POINTS 1353 float
0.0 0.0 0.0
0.0 3.846153846153846E-4 0.0
0.0 7.692307692307692E-4 0.0
0.0 0.0011538461538461537 0.0
0.0 0.0015384615384615385 0.0
0.0 0.0019230769230769232 0.0
0.0 0.0023076923076923075 0.0
0.0 0.002692307692307692 0.0
0.0 0.003076923076923077 0.0
0.0 0.0034615384615384616 0.0
0.0 0.0038461538461538464 0.0
0.0 0.004230769230769231 0.0
0.0 0.004615384615384615 0.0
0.0 0.005 0.0
0.0 0.005111111111111111 0.0
0.0 0.005222222222222223 0.0
0.0 0.005333333333333333 0.0
0.0 0.0054444444444444445 0.0
0.0 0.005555555555555556 0.0
0.0 0.005666666666666667 0.0
0.0 0.0057777777777777775 0.0
0.0 0.005888888888888889 0.0
0.0 0.006 0.0
0.0 0.01711111111111111 0.0
0.0 0.028222222222222225 0.0
0.0 0.03933333333333333 0.0
0.0 0.050444444444444445 0.0
0.0 0.06155555555555556 0.0
0.0 0.07266666666666667 0.0
0.0 0.08377777777777778 0.0
0.0 0.0948888888888889 0.0
0.0 0.10600000000000001 0.0
0.0 0.10611111111111113 0.0
0.0 0.10622222222222223 0.0
0.0 0.10633333333333335 0.0
0.0 0.10644444444444445 0.0
0.0 0.10655555555555557 0.0
0.0 0.10666666666666667 0.0
0.0 0.10677777777777779 0.0
0.0 0.1068888888888889 0.0
0.0 0.10700000000000001 0.0
1.1111111111111112E-4 0.0 0.0
1.1111111111111112E-4 3.846153846153846E-4 0.0
1.1111111111111112E-4 7.692307692307692E-4 0.0
1.1111111111111112E-4 0.0011538461538461537 0.0
1.1111111111111112E-4 0.0015384615384615385 0.0
1.1111111111111112E-4 0.0019230769230769232 0.0
1.1111111111111112E-4 0.0023076923076923075 0.0
1.1111111111111112E-4 0.002692307692307692 0.0
1.1111111111111112E-4 0.003076923076923077 0.0
1.1111111111111112E-4 0.0034615384615384616 0.0
1.1111111111111112E-4 0.0038461538461538464 0.0
1.1111111111111112E-4 0.004230769230769231 0.0
1.1111111111111112E-4 0.004615384615384615 0.0
1.1111111111111112E-4 0.005 0.0
1.1111111111111112E-4 0.005111111111111111 0.0
1.1111111111111112E-4 0.005222222222222223 0.0
1.1111111111111112E-4 0.005333333333333333 0.0
1.1111111111111112E-4 0.0054444444444444445 0.0
1.1111111111111112E-4 0.005555555555555556 0.0
1.1111111111111112E-4 0.005666666666666667 0.0
1.1111111111111112E-4 0.0057777777777777775 0.0
1.1111111111111112E-4 0.005888888888888889 0.0
1.1111111111111112E-4 0.006 0.0
1.1111111111111112E-4 0.01711111111111111 0.0
1.1111111111111112E-4 0.028222222222222225 0.0
1.1111111111111112E-4 0.03933333333333333 0.0
1.1111111111111112E-4 0.050444444444444445 0.0
1.1111111111111112E-4 0.06155555555555556 0.0
1.1111111111111112E-4 0.07266666666666667 0.0
1.1111111111111112E-4 0.08377777777777778 0.0
1.1111111111111112E-4 0.0948888888888889 0.0
1.1111111111111112E-4 0.10600000000000001 0.0
1.1111111111111112E-4 0.10611111111111113 0.0
1.1111111111111112E-4 0.10622222222222223 0.0
1.1111111111111112E-4 0.10633333333333335 0.0
1.1111111111111112E-4 0.10644444444444445 0.0
1.1111111111111112E-4 0.10655555555555557 0.0
1.1111111111111112E-4 0.10666666666666667 0.0
1.1111111111111112E-4 0.10677777777777779 0.0
1.1111111111111112E-4 0.1068888888888889 0.0
1.1111111111111112E-4 0.10700000000000001 0.0
2.2222222222222223E-4 0.0 0.0
2.2222222222222223E-4 3.846153846153846E-4 0.0
2.2222222222222223E-4 7.692307692307692E-4 0.0
2.2222222222222223E-4 0.0011538461538461537 0.0
2.2222222222222223E-4 0.0015384615384615385 0.0
2.2222222222222223E-4 0.0019230769230769232 0.0
2.2222222222222223E-4 0.0023076923076923075 0.0
2.2222222222222223E-4 0.002692307692307692 0.0
2.2222222222222223E-4 0.003076923076923077 0.0
2.2222222222222223E-4 0.0034615384615384616 0.0
2.2222222222222223E-4 0.0038461538461538464 0.0
2.2222222222222223E-4 0.004230769230769231 0.0
2.2222222222222223E-4 0.004615384615384615 0.0
2.2222222222222223E-4 0.005 0.0
2.2222222222222223E-4 0.005111111111111111 0.0
2.2222222222222223E-4 0.005222222222222223 0.0
2.2222222222222223E-4 0.005333333333333333 0.0
2.2222222222222223E-4 0.0054444444444444445 0.0
2.2222222222222223E-4 0.005555555555555556 0.0
2.2222222222222223E-4 0.005666666666666667 0.0
2.2222222222222223E-4 0.0057777777777777775 0.0
2.2222222222222223E-4 0.005888888888888889 0.0
2.2222222222222223E-4 0.006 0.0
2.2222222222222223E-4 0.01711111111111111 0.0
2.2222222222222223E-4 0.028222222222222225 0.0
2.2222222222222223E-4 0.03933333333333333 0.0
2.2222222222222223E-4 0.050444444444444445 0.0
2.2222222222222223E-4 0.06155555555555556 0.0
2.2222222222222223E-4 0.07266666666666667 0.0
2.2222222222222223E-4 0.08377777777777778 0.0
2.2222222222222223E-4 0.0948888888888889 0.0
2.2222222222222223E-4 0.10600000000000001 0.0
2.2222222222222223E-4 0.10611111111111113 0.0
2.2222222222222223E-4 0.10622222222222223 0.0
2.2222222222222223E-4 0.10633333333333335 0.0
2.2222222222222223E-4 0.10644444444444445 0.0
2.2222222222222223E-4 0.10655555555555557 0.0
2.2222222222222223E-4 0.10666666666666667 0.0
2.2222222222222223E-4 0.10677777777777779 0.0
2.2222222222222223E-4 0.1068888888888889 0.0
2.2222222222222223E-4 0.10700000000000001 0.0
3.333333333333334E-4 0.0 0.0
3.333333333333334E-4 3.846153846153846E-4 0.0
3.333333333333334E-4 7.692307692307692E-4 0.0
3.333333333333334E-4 0.0011538461538461537 0.0
3.333333333333334E-4 0.0015384615384615385 0.0
3.333333333333334E-4 0.0019230769230769232 0.0
3.333333333333334E-4 0.0023076923076923075 0.0
3.333333333333334E-4 0.002692307692307692 0.0
3.333333333333334E-4 0.003076923076923077 0.0
3.333333333333334E-4 0.0034615384615384616 0.0
3.333333333333334E-4 0.0038461538461538464 0.0
3.333333333333334E-4 0.004230769230769231 0.0
3.333333333333334E-4 0.004615384615384615 0.0
3.333333333333334E-4 0.005 0.0
3.333333333333334E-4 0.005111111111111111 0.0
3.333333333333334E-4 0.005222222222222223 0.0
3.333333333333334E-4 0.005333333333333333 0.0
3.333333333333334E-4 0.0054444444444444445 0.0
3.333333333333334E-4 0.005555555555555556 0.0
3.333333333333334E-4 0.005666666666666667 0.0
3.333333333333334E-4 0.0057777777777777775 0.0
3.333333333333334E-4 0.005888888888888889 0.0
3.333333333333334E-4 0.006 0.0
3.333333333333334E-4 0.01711111111111111 0.0
3.333333333333334E-4 0.028222222222222225 0.0
3.333333333333334E-4 0.03933333333333333 0.0
3.333333333333334E-4 0.050444444444444445 0.0
3.333333333333334E-4 0.06155555555555556 0.0
3.333333333333334E-4 0.07266666666666667 0.0
3.333333333333334E-4 0.08377777777777778 0.0
3.333333333333334E-4 0.0948888888888889 0.0
3.333333333333334E-4 0.10600000000000001 0.0
3.333333333333334E-4 0.10611111111111113 0.0
3.333333333333334E-4 0.10622222222222223 0.0
3.333333333333334E-4 0.10633333333333335 0.0
3.333333333333334E-4 0.10644444444444445 0.0
3.333333333333334E-4 0.10655555555555557 0.0
3.333333333333334E-4 0.10666666666666667 0.0
3.333333333333334E-4 0.10677777777777779 0.0
3.333333333333334E-4 0.1068888888888889 0.0
3.333333333333334E-4 0.10700000000000001 0.0
4.4444444444444447E-4 0.0 0.0
4.4444444444444447E-4 3.846153846153846E-4 0.0
4.4444444444444447E-4 7.692307692307692E-4 0.0
4.4444444444444447E-4 0.0011538461538461537 0.0
4.4444444444444447E-4 0.0015384615384615385 0.0
4.4444444444444447E-4 0.0019230769230769232 0.0
4.4444444444444447E-4 0.0023076923076923075 0.0
4.4444444444444447E-4 0.002692307692307692 0.0
4.4444444444444447E-4 0.003076923076923077 0.0
4.4444444444444447E-4 0.0034615384615384616 0.0
4.4444444444444447E-4 0.0038461538461538464 0.0
4.4444444444444447E-4 0.004230769230769231 0.0
4.4444444444444447E-4 0.004615384615384615 0.0
4.4444444444444447E-4 0.005 0.0
4.4444444444444447E-4 0.005111111111111111 0.0
4.4444444444444447E-4 0.005222222222222223 0.0
4.4444444444444447E-4 0.005333333333333333 0.0
4.4444444444444447E-4 0.0054444444444444445 0.0
4.4444444444444447E-4 0.005555555555555556 0.0
4.4444444444444447E-4 0.005666666666666667 0.0
4.4444444444444447E-4 0.0057777777777777775 0.0
4.4444444444444447E-4 0.005888888888888889 0.0
4.4444444444444447E-4 0.006 0.0
4.4444444444444447E-4 0.01711111111111111 0.0
4.4444444444444447E-4 0.028222222222222225 0.0
4.4444444444444447E-4 0.03933333333333333 0.0
4.4444444444444447E-4 0.050444444444444445 0.0
4.4444444444444447E-4 0.06155555555555556 0.0
4.4444444444444447E-4 0.07266666666666667 0.0
4.4444444444444447E-4 0.08377777777777778 0.0
4.4444444444444447E-4 0.0948888888888889 0.0
4.4444444444444447E-4 0.10600000000000001 0.0
4.4444444444444447E-4 0.10611111111111113 0.0
4.4444444444444447E-4 0.10622222222222223 0.0
4.4444444444444447E-4 0.10633333333333335 0.0
4.4444444444444447E-4 0.10644444444444445 0.0
4.4444444444444447E-4 0.10655555555555557 0.0
4.4444444444444447E-4 0.10666666666666667 0.0
4.4444444444444447E-4 0.10677777777777779 0.0
4.4444444444444447E-4 0.1068888888888889 0.0
4.4444444444444447E-4 0.10700000000000001 0.0
5.555555555555556E-4 0.0 0.0
5.555555555555556E-4 3.846153846153846E-4 0.0
5.555555555555556E-4 7.692307692307692E-4 0.0
5.555555555555556E-4 0.0011538461538461537 0.0
5.555555555555556E-4 0.0015384615384615385 0.0
5.555555555555556E-4 0.0019230769230769232 0.0
5.555555555555556E-4 0.0023076923076923075 0.0
5.555555555555556E-4 0.002692307692307692 0.0
5.555555555555556E-4 0.003076923076923077 0.0
5.555555555555556E-4 0.0034615384615384616 0.0
5.555555555555556E-4 0.0038461538461538464 0.0
5.555555555555556E-4 0.004230769230769231 0.0
5.555555555555556E-4 0.004615384615384615 0.0
5.555555555555556E-4 0.005 0.0
5.555555555555556E-4 0.005111111111111111 0.0
5.555555555555556E-4 0.005222222222222223 0.0
5.555555555555556E-4 0.005333333333333333 0.0
5.555555555555556E-4 0.0054444444444444445 0.0
5.555555555555556E-4 0.005555555555555556 0.0
5.555555555555556E-4 0.005666666666666667 0.0
5.555555555555556E-4 0.0057777777777777775 0.0
5.555555555555556E-4 0.005888888888888889 0.0
5.555555555555556E-4 0.006 0.0
5.555555555555556E-4 0.01711111111111111 0.0
5.555555555555556E-4 0.028222222222222225 0.0
5.555555555555556E-4 0.03933333333333333 0.0
5.555555555555556E-4 0.050444444444444445 0.0
5.555555555555556E-4 0.06155555555555556 0.0
[...]
POINT_DATA 1353
SCALARS Temperatura float 1
LOOKUP_TABLE default
119.92749434029048
119.79852137771017
119.66791457135731
119.53563291275302
119.40162469992754
119.26581832750223
119.12811478214405
118.98837401770979
118.8463909200452
118.70184058753954
118.55420440046282
118.4024465171978
118.24510787633783
118.07446840756002
117.89197143538485
117.71965135332718
117.54995408813764
117.38147842943393
117.21328481026768
117.04468617100879
116.87509665824051
116.70398128085569
116.53083447798403
96.99234909201155
96.7928415536483
96.82699252381663
96.81854950887356
96.82085945812221
96.81932675991932
96.82374769199204
96.8004048922456
94.98429807299588
94.96825585982398
94.95241062176036
94.93672461076743
94.92116232986406
94.90569204788424
94.89028689856607
94.87492557842013
94.85959272510345
94.84427908468905
119.93352681116633
119.80454838796803
119.67393525906685
119.54164787037999
119.40763461071747
119.27182420984346
119.13411808810517
118.99437744499122
118.85239783244363
118.70786332077707
118.56023985590392
118.40861179612561
118.25108820803808
118.08270493200791
117.90981704013883
117.73848242480868
117.5694152224508
117.40132159271509
117.23342177453135
117.06507463790378
116.89571510807852
116.72481663659087
116.55187625870167
97.00624727327543
96.80907248020846
96.84261752498612
96.83433338370514
96.83659840613558
96.83509074235337
96.83945366291073
96.81632647967453
94.99955428203225
94.98352820516375
94.96769891262537
94.95202769237932
94.93647826929977
94.92101836053973
94.9056207616172
94.89026399568047
94.87493263133814
94.8596173967337
119.93972918273339
119.8107484464161
119.6801320898436
119.54784319371232
119.4138307429318
119.27802434763431
119.14032696331726
119.0006025602417
118.85865261058028
118.71417122607892
118.56664916707179
118.41522307592078
118.25804456383102
118.09226449034892
117.92371232271775
117.75552312223358
117.58805696579043
117.42109594611817
117.25410764412837
117.08656710358736
116.91795997479474
116.74778054762804
116.57553093858024
97.01644792183698
96.82635879047898
96.85806988467425
96.85026658235645
96.85239561084026
96.85096382230084
96.85515068072696
96.83268041131576
95.01465363446165
94.99868362745575
94.98290964791221
94.96729000432951
94.95178606227165
94.93636391760583
94.92099542002332
94.90565864862573
94.890338027696
94.87502427112861
119.94610246790592
119.81712142711946
119.68650493123162
119.55421869450409
119.42021283672973
119.28441838324444
119.1467407582219
119.00704856393702
118.86515254129229
118.72076386958076
118.57341428158352
118.42229819229166
118.26586576944231
118.10247893933145
117.93706579333934
117.77160403915524
117.60627335994708
117.44098220389895
117.27543098858285
117.1092090898468
116.941859798423
116.77289906920502
116.60182879633527
97.02293922856667
96.84470521266023
96.87334795283468
96.86634968662342
96.86825086505087
96.86694621901457
96.87083832642828
96.84946774354164
95.02959357198974
95.01372301936465
94.99804681171759
94.9825179269202
94.96709367956602
94.95173756720548
94.93642009170753
94.9211188402909
94.90581819535181
94.89050896858538
119.95264713864819
119.8236672490263
119.69305353404586
119.56077405426629
119.42678046244325
119.2910056955939
119.15335849917456
119.0137137804138
118.87189450142728
118.72763606309756
118.58051982839702
118.42983316395522
118.27437974818557
118.11319978887796
117.95046140565083
117.78752446699139
117.62445710149478
117.46118525717186
117.29749259193629
117.13305029887914
116.96744655020414
116.80020799146558
116.63082020219932
97.02570193351644
96.86411950987959
96.88844899400348
96.88258364901014
96.88416381368083
96.88303828637532
96.8865158921187
96.86669021631667
95.04436971330652
95.02864834333238
95.01311791756007
94.99772307108324
94.98241523687155
94.96715461810227
94.95191043131274
94.93666016220237
94.92138856886167
94.90608685041931
119.95936333558134
119.83038576082706
119.69977755223329
119.56750882346786
119.433533022897
119.29778542982483
119.16017885563132
119.02059590579083
118.8788744580843
118.73477966966944
118.58795098165879
118.4377979742107
118.28345353371664
118.12436000249023
117.96410001514649
117.80360045599019
117.64287582212327
117.48185346559427
117.32035878623832
117.1581129128405
116.99473394713749
116.82974157593853
116.66257628341974
97.02470913022502
96.8846125393689
96.9033691688306
96.89896979890516
96.90013395050968
96.89924051843673
96.90218236313773
96.88435031705846
95.058975621704
95.04346357614052
95.02813567423323
95.01292402898241
94.99777235633593
94.98263766263823
94.96748888735026
94.9523045413365
94.9370706136737
94.92177920294972
119.96625096699351
119.83727670074914
119.70667654118412
119.57442242553337
119.44046976136535
119.30475651600898
119.16720016676109
119.02769212511068
118.88608737682621
118.74218490881458
118.5956901293473
118.44615098078451
118.29298618117747
118.13590661543245
117.97803926316044
117.81995040541187
117.6616374553807
117.50304026172017
117.3440227477903
117.18435506052622
117.02368563512881
116.86151387683297
116.69719045635206
97.0199258307663
96.90619837844933
96.91810349664013
96.91550985441343
96.9161606125021
96.91555355860969
96.91783638851405
96.90245138661324
95.07340241824171
95.05817677571622
95.04312135028268
95.02814948870271
95.01319624762638
94.99821756043244
94.98318497959784
94.96808011221762
94.95289149669182
94.93761284771709
119.97330975968892
119.8443396851991
119.71374995297029
119.58151416153511
119.44758977200257
119.31191768904736
119.1744204889576
119.03499918465346
118.89352741070235
118.7498407831789
118.60371660084351
118.45484693951143
118.30289695492795
118.14778491792673
117.99226887858624
117.83658512335977
117.68073854656647
117.52469788768892
117.36837971682627
117.21162623513762
117.05416285796736
116.89548098090108
116.73478165620384
97.01130806837746
96.92889457726619
96.932645782882
96.93220594431986
96.93224296996355
96.93197821485956
96.93347623201252
96.92099779582963
95.08763813465872
95.0728051025766
95.0581115784275
95.04344378170171
95.02873005003433
95.01393416383067
94.99903520103909
94.98402072587412
94.9688834225858
94.95361942954693
119.98053928798295
119.85157420846836
119.72099713331768
119.58878321503576
119.45489201158217
119.31926751269931
119.18183764663576
119.04251348010348
118.90118813054632
118.75773535745346
118.61200754018334
118.46384052242288
118.31311705475855
118.15993577678614
118.00674001960324
117.85345124198568
117.70009752216227
117.5466908320377
117.39321838787122
117.23962870280614
117.08579916582897
116.93145561346712
116.77550100613325
96.99880106997566
96.95272266389192
96.94698847765954
96.94906064955174
96.94838000895481
96.94851548581731
96.94909968779804
96.93999525154821
95.10166658740576
95.08738479525967
95.07317847588925
95.05887210757557
95.04443016025486
95.02983604985482
95.01508217552949
95.00016490813563
94.98508253116152
94.96983430145671
119.98793899239311
119.85897964661547
119.72841732085826
119.59622865713511
119.46237531225607
119.32680440621897
119.18944928530124
119.05023116077514
118.90906274841399
118.76585610286543
118.62053896627326
118.47308756103895
118.32358461933569
118.17229675305884
118.02138207749238
117.87045774832708
117.71958239432008
117.56881879146623
117.41823581197121
117.26791154200244
117.11793833654363
116.96843150461096
100.28675658292562
100.28675658292562
100.28675658292562
100.28675658292562
100.28675658292562
100.28675658292562
100.28675658292562
100.28675658292562
100.28675658292562
100.28675658292562
95.10209217637737
95.08843624758605
95.07452131399084
95.06036450532599
95.04597851785658
95.03137278786168
95.0165541666482
95.0015273244158
94.98629499301298
121.08457627932411
120.95744433142369
120.83192694523026
120.7080439615446
120.5858283167296
120.46532620280844
120.34659725513193
120.22971461725278
120.11476457884767
120.00184518915522
119.8910626633994
119.78252340015216
119.67631913713366
119.57250662651009
119.47078793138789
119.36931194173346
119.26807546213078
119.16707425951425
119.0663025290965
118.9657520452828
118.8654107907201
118.7652606081678
100.28675658292562
100.28675658292562
100.28675658292562
100.28675658292562
100.28675658292562
100.28675658292562
100.28675658292562
100.28675658292562
100.28675658292562
100.28675658292562
97.001619194689
96.98229783374774
96.96347021206145
96.94513011032718
96.92727274355337
96.90989444191251
96.89299246631217
96.87656489755739
96.86061056949173
121.80208148850666
121.67466904389414
121.54800533851339
121.4220828731641
121.2968889282425
121.1724053792943
121.04860844656581
120.92546841685945
120.80294941731306
120.68100940059512
120.55960066133444
120.4386714795055
120.3181695798836
120.19804708625925
120.07903577639439
119.96009465511392
119.841221148852
119.72241292051159
119.60366801199105
119.48498507157932
119.36636372191073
119.24780519091341
100.28675658292562
100.28675658292562
100.28675658292562
100.28675658292562
100.28675658292562
100.28675658292562
100.28675658292562
100.28675658292562
100.28675658292562
100.28675658292562
97.02588477288518
97.01029666278829
96.99468493038295
96.97905196918946
96.96339966961443
96.94772950625975
96.9320425887278
96.91633969236166
96.90062127688964
122.18207374092522
122.05469350526458
121.9279730555303
121.80191462076547
121.67652188835102
121.55180010100301
121.42775619184559
121.30439894863375
121.18173918735516
121.0597898939649
120.93856624936234
120.81808537689912
120.6983656227511
120.57942544446288
120.46182578734309
120.34433883187573
120.2269659526202
120.10970847494202
119.99256763792772
119.8755445344505
119.75864001339286
119.64185451110386
100.28675658292562
100.28675658292562
100.28675658292562
100.28675658292562
100.28675658292562
100.28675658292562
100.28675658292562
100.28675658292562
100.28675658292562
100.28675658292562
97.02572071337418
97.0091871033737
96.9927631821353
96.97644809711063
96.96024116111563
96.94414182827084
96.92814967986625
96.91226441572928
96.89648584895107
122.39597276561122
122.26859044873737
122.1417746824014
122.01552490541738
121.88984007891767
121.7647186467443
121.64015847958389
121.51615680462426
121.39271012527254
121.26981414115893
121.14746369043272
121.02565275708129
120.90437459471464
120.78362194869256
120.66407696043758
120.54461938312616
120.4252485889981
120.305963957896
120.18676488667386
120.06765080475368
119.94862119986755
119.82967566284078
100.28675658292562
100.28675658292562
100.28675658292562
100.28675658292562
100.28675658292562
100.28675658292562
100.28675658292562
100.28675658292562
100.28675658292562
100.28675658292562
97.02572230841751
97.00943570747853
96.99322336631337
96.9770855424693
96.96102244100071
96.94503422114423
96.92912100028626
96.91328285641261
96.89751982961786
122.5104113541256
122.38302756585024
122.2561604770472
122.12981029865804
122.00397732060851
121.8786619261804
121.75386461248708
121.629586016817
121.5058269479316
121.38258841992415
121.2598716830844
121.13767824056237
121.01600983706015
120.89486842414962
120.77494210784013
120.6551049833444
120.5353572430202
120.41569907843889
120.2961306780633
120.17665222326562
120.05726388159403
119.93796579489513
100.28675658292562
100.28675658292562
100.28675658292562
100.28675658292562
100.28675658292562
100.28675658292562
100.28675658292562
100.28675658292562
100.28675658292562
100.28675658292562
97.02574487574564
97.00939353452078
96.99312589885382
96.97694186539434
96.96084134704682
96.94482427109862
96.92889057809239
96.91304022112126
96.89727316539033
122.56640842484448
122.4390249762957
122.31213577098605
122.18574084084054
122.05984016787143
121.9344336790451
121.80952123889928
121.68510263987757
121.56117759051237
121.43774570198354
121.31480647446733
121.19235928631278
121.07040338986629
120.94893791261211
120.82866910986564
120.7084859313288
120.5883882947153
120.46837611714088
120.34844931570233
120.22860780853196
120.10885151664
119.98918036723133
100.28675658292562
100.28675658292562
100.28675658292562
100.28675658292562
100.28675658292562
100.28675658292562
100.28675658292562
100.28675658292562
100.28675658292562
100.28675658292562
97.02573351483856
97.00939945888973
96.99314654189004
96.97697477639707
96.96088416958003
96.94487472378229
96.92894643686557
96.91309930242805
96.89733330994164
122.58312823532388
122.45574449131463
122.32884752749675
122.20243743258796
122.07651428950255
121.95107817831234
121.82612918053702
121.70166738482477
121.57769289401718
121.4542058334074
121.33120635956675
121.20869466830501
121.0866709999235
120.96513564246415
120.84479685401672
120.72454374736319
120.60437636100258
120.48429473371405
120.36429890430635
120.2443889111301
120.12456479119491
120.00482657854829
100.28675658292562
100.28675658292562
100.28675658292562
100.28675658292562
100.28675658292562
100.28675658292562
100.28675658292562
100.28675658292562
100.28675658292562
100.28675658292562
97.02573868141663
97.00939898144355
96.99314127455885
96.97696552841862
96.96087171355603
96.94485980308816
96.92892977253439
96.91308159970023
96.89731526460372
122.56640842484418
122.43902497629537
122.31213577098566
122.18574084084005
122.05984016787073
121.93443367904409
121.80952123889804
121.68510263987619
121.56117759051085
121.43774570198175
121.3148064744652
121.19235928631025
121.07040338986337
120.94893791260878
120.82866910986189
120.70848593132467
120.58838829471087
120.46837611713612
120.34844931569728
120.22860780852673
120.1088515166347
119.98918036722596
100.28675658292562
100.28675658292562
100.28675658292562
100.28675658292562
100.28675658292562
100.28675658292562
100.28675658292562
100.28675658292562
100.28675658292562
100.28675658292562
97.02573351482918
97.00939945888034
96.99314654188062
96.97697477638764
96.96088416957055
96.94487472377276
96.92894643685598
96.91309930241846
96.89733330993207
122.51041135413108
122.3830275658557
122.25616047705267
122.1298102986636
122.00397732061417
121.8786619261862
121.75386461249289
121.62958601682276
121.50582694793731
121.3825884199299
121.2598716830903
121.13767824056845
121.01600983706638
120.89486842415612
120.77494210784687
120.65510498335131
120.53535724302729
120.41569907844624
120.29613067807078
120.17665222327318
120.05726388160154
119.93796579490262
100.28675658292562
100.28675658292562
100.28675658292562
100.28675658292562
100.28675658292562
100.28675658292562
100.28675658292562
100.28675658292562
100.28675658292562
100.28675658292562
97.02574487571638
97.00939353449138
96.99312589882427
96.97694186536462
96.96084134701692
96.94482427106861
96.9288905780623
96.91304022109111
96.89727316536018
122.39597276561997
122.26859044874617
122.14177468241033
122.01552490542637
121.88984007892661
121.76471864675308
121.64015847959263
121.51615680463296
121.39271012528113
121.26981414116727
121.14746369044072
121.02565275708885
120.90437459472176
120.7836219486992
120.66407696044382
120.5446193831321
120.42524858900383
120.30596395790154
120.18676488667927
120.06765080475898
119.9486211998728
119.82967566284599
100.28675658292562
100.28675658292562
100.28675658292562
100.28675658292562
100.28675658292562
100.28675658292562
100.28675658292562
100.28675658292562
100.28675658292562
100.28675658292562
97.02572230841531
97.00943570747636
96.99322336631121
96.97708554246718
96.96102244099865
96.94503422114227
96.92912100028434
96.91328285641066
96.8975198296159
122.1820737409458
122.05469350528513
121.92797305555081
121.8019146207859
121.67652188837138
121.55180010102335
121.42775619186585
121.30439894865395
121.1817391873754
121.0597898939852
120.9385662493827
120.81808537691956
120.69836562277156
120.57942544448339
120.46182578736358
120.34433883189622
120.22696595264058
120.10970847496218
119.99256763794774
119.87554453447035
119.75864001341247
119.64185451112327
100.28675658292562
100.28675658292562
100.28675658292562
100.28675658292562
100.28675658292562
100.28675658292562
100.28675658292562
100.28675658292562
100.28675658292562
100.28675658292562
97.02572071336964
97.0091871033691
96.99276318213067
96.976448097106
96.96024116111097
96.94414182826614
96.92814967986153
96.9122644157246
96.8964858489464
121.80208148853242
121.67466904391993
121.5480053385393
121.42208287319013
121.29688892826869
121.17240537932062
121.04860844659228
120.92546841688605
120.80294941733975
120.68100940062189
120.55960066136132
120.4386714795325
120.31816957991082
120.1980470862867
120.07903577642212
119.96009465514192
119.84122114888022
119.72241292054011
119.60366801201975
119.4849850716082
119.36636372193972
119.24780519094242
100.28675658292562
100.28675658292562
100.28675658292562
100.28675658292562
100.28675658292562
100.28675658292562
100.28675658292562
100.28675658292562
100.28675658292562
100.28675658292562
97.02588477286588
97.01029666276888
96.99468493036342
96.97905196916982
96.96339966959475
96.94772950624005
96.93204258870813
96.91633969234206
96.90062127687005
121.08457627933059
120.95744433143018
120.83192694523679
120.70804396155116
120.58582831673613
120.46532620281491
120.34659725513829
120.22971461725906
120.11476457885392
120.00184518916147
119.89106266340568
119.78252340015845
119.67631913713996
119.57250662651636
119.47078793139409
119.36931194173961
119.26807546213688
119.16707425952016
119.06630252910237
118.96575204528858
118.86541079072572
118.76526060817332
100.28675658292562
100.28675658292562
100.28675658292562
100.28675658292562
100.28675658292562
100.28675658292562
100.28675658292562
100.28675658292562
100.28675658292562
100.28675658292562
97.00161919469076
96.9822978337495
96.96347021206323
96.94513011032899
96.92727274355515
96.9098944419142
96.89299246631377
96.87656489755892
96.86061056949323
119.98793899239372
119.85897964661609
119.72841732085884
119.59622865713564
119.46237531225654
119.32680440621951
119.18944928530192
119.05023116077591
118.90906274841487
118.76585610286644
118.62053896627438
118.4730875610402
118.32358461933703
118.17229675306022
118.02138207749388
117.87045774832869
117.71958239432182
117.56881879146819
117.41823581197322
117.2679115420045
117.11793833654576
116.96843150461316
100.28675658292562
100.28675658292562
100.28675658292562
100.28675658292562
100.28675658292562
100.28675658292562
100.28675658292562
100.28675658292562
100.28675658292562
100.28675658292562
95.10209217636292
95.08843624757172
95.07452131397662
95.06036450531181
95.04597851784246
95.03137278784763
95.01655416663424
95.00152732440185
94.98629499299902
119.98053928798375
119.85157420846907
119.72099713331824
119.5887832150362
119.45489201158257
119.31926751269998
119.18183764663651
119.04251348010426
118.90118813054727
118.75773535745459
118.61200754018445
118.46384052242435
118.31311705476007
118.15993577678765
118.00674001960489
117.85345124198729
117.70009752216404
117.54669083203957
117.39321838787316
117.23962870280816
117.08579916583108
116.93145561346932
116.77550100613544
96.99880106998735
96.95272266393283
96.94698847767498
96.94906064956632
96.94838000901173
96.94851548583037
96.9490996877958
96.93999525155108
95.10166658739125
95.08738479524516
95.07317847587481
95.05887210756119
95.04443016024065
95.02983604984064
95.01508217551532
95.00016490812145
94.98508253114736
94.96983430144257
119.97330975968973
119.84433968519983
119.71374995297093
119.5815141615356
119.44758977200307
119.3119176890479
119.17442048895832
119.03499918465434
118.89352741070343
118.74984078318018
118.60371660084463
118.45484693951288
118.30289695492962
118.14778491792833
117.99226887858794
117.8365851233615
117.68073854656828
117.52469788769078
117.36837971682813
117.21162623513958
117.05416285796937
116.89548098090322
116.73478165620604
97.0113080683894
96.92889457730723
96.93264578289744
96.93220594433451
96.9322429700208
96.93197821487256
96.93347623201035
96.92099779583232
95.08763813464405
95.07280510256197
95.05811157841296
95.0434437816872
95.0287300500199
95.01393416381632
94.99903520102482
94.9840207258598
94.96888342257151
94.95361942953258
119.96625096699434
119.83727670074985
119.70667654118473
119.57442242553384
119.44046976136595
119.30475651600949
119.1672001667618
119.02769212511174