# vtk DataFile Version 2.0
Niestacjonarne zagadnienie cieplne - ogrzewanie wody w garnku stalowym
ASCII
DATASET UNSTRUCTURED_GRID
POINTS 1353 float
0.0 0.0 0.0
0.0 3.846153846153846E-4 0.0
0.0 7.692307692307692E-4 0.0
0.0 0.0011538461538461537 0.0
0.0 0.0015384615384615385 0.0
0.0 0.0019230769230769232 0.0
0.0 0.0023076923076923075 0.0
0.0 0.002692307692307692 0.0
0.0 0.003076923076923077 0.0
0.0 0.0034615384615384616 0.0
0.0 0.0038461538461538464 0.0
0.0 0.004230769230769231 0.0
0.0 0.004615384615384615 0.0
0.0 0.005 0.0
0.0 0.005111111111111111 0.0
0.0 0.005222222222222223 0.0
0.0 0.005333333333333333 0.0
0.0 0.0054444444444444445 0.0
0.0 0.005555555555555556 0.0
0.0 0.005666666666666667 0.0
0.0 0.0057777777777777775 0.0
0.0 0.005888888888888889 0.0
0.0 0.006 0.0
0.0 0.01711111111111111 0.0
0.0 0.028222222222222225 0.0
0.0 0.03933333333333333 0.0
0.0 0.050444444444444445 0.0
0.0 0.06155555555555556 0.0
0.0 0.07266666666666667 0.0
0.0 0.08377777777777778 0.0
0.0 0.0948888888888889 0.0
0.0 0.10600000000000001 0.0
0.0 0.10611111111111113 0.0
0.0 0.10622222222222223 0.0
0.0 0.10633333333333335 0.0
0.0 0.10644444444444445 0.0
0.0 0.10655555555555557 0.0
0.0 0.10666666666666667 0.0
0.0 0.10677777777777779 0.0
0.0 0.1068888888888889 0.0
0.0 0.10700000000000001 0.0
1.1111111111111112E-4 0.0 0.0
1.1111111111111112E-4 3.846153846153846E-4 0.0
1.1111111111111112E-4 7.692307692307692E-4 0.0
1.1111111111111112E-4 0.0011538461538461537 0.0
1.1111111111111112E-4 0.0015384615384615385 0.0
1.1111111111111112E-4 0.0019230769230769232 0.0
1.1111111111111112E-4 0.0023076923076923075 0.0
1.1111111111111112E-4 0.002692307692307692 0.0
1.1111111111111112E-4 0.003076923076923077 0.0
1.1111111111111112E-4 0.0034615384615384616 0.0
1.1111111111111112E-4 0.0038461538461538464 0.0
1.1111111111111112E-4 0.004230769230769231 0.0
1.1111111111111112E-4 0.004615384615384615 0.0
1.1111111111111112E-4 0.005 0.0
1.1111111111111112E-4 0.005111111111111111 0.0
1.1111111111111112E-4 0.005222222222222223 0.0
1.1111111111111112E-4 0.005333333333333333 0.0
1.1111111111111112E-4 0.0054444444444444445 0.0
1.1111111111111112E-4 0.005555555555555556 0.0
1.1111111111111112E-4 0.005666666666666667 0.0
1.1111111111111112E-4 0.0057777777777777775 0.0
1.1111111111111112E-4 0.005888888888888889 0.0
1.1111111111111112E-4 0.006 0.0
1.1111111111111112E-4 0.01711111111111111 0.0
1.1111111111111112E-4 0.028222222222222225 0.0
1.1111111111111112E-4 0.03933333333333333 0.0
1.1111111111111112E-4 0.050444444444444445 0.0
1.1111111111111112E-4 0.06155555555555556 0.0
1.1111111111111112E-4 0.07266666666666667 0.0
1.1111111111111112E-4 0.08377777777777778 0.0
1.1111111111111112E-4 0.0948888888888889 0.0
1.1111111111111112E-4 0.10600000000000001 0.0
1.1111111111111112E-4 0.10611111111111113 0.0
1.1111111111111112E-4 0.10622222222222223 0.0
1.1111111111111112E-4 0.10633333333333335 0.0
1.1111111111111112E-4 0.10644444444444445 0.0
1.1111111111111112E-4 0.10655555555555557 0.0
1.1111111111111112E-4 0.10666666666666667 0.0
1.1111111111111112E-4 0.10677777777777779 0.0
1.1111111111111112E-4 0.1068888888888889 0.0
1.1111111111111112E-4 0.10700000000000001 0.0
2.2222222222222223E-4 0.0 0.0
2.2222222222222223E-4 3.846153846153846E-4 0.0
2.2222222222222223E-4 7.692307692307692E-4 0.0
2.2222222222222223E-4 0.0011538461538461537 0.0
2.2222222222222223E-4 0.0015384615384615385 0.0
2.2222222222222223E-4 0.0019230769230769232 0.0
2.2222222222222223E-4 0.0023076923076923075 0.0
2.2222222222222223E-4 0.002692307692307692 0.0
2.2222222222222223E-4 0.003076923076923077 0.0
2.2222222222222223E-4 0.0034615384615384616 0.0
2.2222222222222223E-4 0.0038461538461538464 0.0
2.2222222222222223E-4 0.004230769230769231 0.0
2.2222222222222223E-4 0.004615384615384615 0.0
2.2222222222222223E-4 0.005 0.0
2.2222222222222223E-4 0.005111111111111111 0.0
2.2222222222222223E-4 0.005222222222222223 0.0
2.2222222222222223E-4 0.005333333333333333 0.0
2.2222222222222223E-4 0.0054444444444444445 0.0
2.2222222222222223E-4 0.005555555555555556 0.0
2.2222222222222223E-4 0.005666666666666667 0.0
2.2222222222222223E-4 0.0057777777777777775 0.0
2.2222222222222223E-4 0.005888888888888889 0.0
2.2222222222222223E-4 0.006 0.0
2.2222222222222223E-4 0.01711111111111111 0.0
2.2222222222222223E-4 0.028222222222222225 0.0
2.2222222222222223E-4 0.03933333333333333 0.0
2.2222222222222223E-4 0.050444444444444445 0.0
2.2222222222222223E-4 0.06155555555555556 0.0
2.2222222222222223E-4 0.07266666666666667 0.0
2.2222222222222223E-4 0.08377777777777778 0.0
2.2222222222222223E-4 0.0948888888888889 0.0
2.2222222222222223E-4 0.10600000000000001 0.0
2.2222222222222223E-4 0.10611111111111113 0.0
2.2222222222222223E-4 0.10622222222222223 0.0
2.2222222222222223E-4 0.10633333333333335 0.0
2.2222222222222223E-4 0.10644444444444445 0.0
2.2222222222222223E-4 0.10655555555555557 0.0
2.2222222222222223E-4 0.10666666666666667 0.0
2.2222222222222223E-4 0.10677777777777779 0.0
2.2222222222222223E-4 0.1068888888888889 0.0
2.2222222222222223E-4 0.10700000000000001 0.0
3.333333333333334E-4 0.0 0.0
3.333333333333334E-4 3.846153846153846E-4 0.0
3.333333333333334E-4 7.692307692307692E-4 0.0
3.333333333333334E-4 0.0011538461538461537 0.0
3.333333333333334E-4 0.0015384615384615385 0.0
3.333333333333334E-4 0.0019230769230769232 0.0
3.333333333333334E-4 0.0023076923076923075 0.0
3.333333333333334E-4 0.002692307692307692 0.0
3.333333333333334E-4 0.003076923076923077 0.0
3.333333333333334E-4 0.0034615384615384616 0.0
3.333333333333334E-4 0.0038461538461538464 0.0
3.333333333333334E-4 0.004230769230769231 0.0
3.333333333333334E-4 0.004615384615384615 0.0
3.333333333333334E-4 0.005 0.0
3.333333333333334E-4 0.005111111111111111 0.0
3.333333333333334E-4 0.005222222222222223 0.0
3.333333333333334E-4 0.005333333333333333 0.0
3.333333333333334E-4 0.0054444444444444445 0.0
3.333333333333334E-4 0.005555555555555556 0.0
3.333333333333334E-4 0.005666666666666667 0.0
3.333333333333334E-4 0.0057777777777777775 0.0
3.333333333333334E-4 0.005888888888888889 0.0
3.333333333333334E-4 0.006 0.0
3.333333333333334E-4 0.01711111111111111 0.0
3.333333333333334E-4 0.028222222222222225 0.0
3.333333333333334E-4 0.03933333333333333 0.0
3.333333333333334E-4 0.050444444444444445 0.0
3.333333333333334E-4 0.06155555555555556 0.0
3.333333333333334E-4 0.07266666666666667 0.0
3.333333333333334E-4 0.08377777777777778 0.0
3.333333333333334E-4 0.0948888888888889 0.0
3.333333333333334E-4 0.10600000000000001 0.0
3.333333333333334E-4 0.10611111111111113 0.0
3.333333333333334E-4 0.10622222222222223 0.0
3.333333333333334E-4 0.10633333333333335 0.0
3.333333333333334E-4 0.10644444444444445 0.0
3.333333333333334E-4 0.10655555555555557 0.0
3.333333333333334E-4 0.10666666666666667 0.0
3.333333333333334E-4 0.10677777777777779 0.0
3.333333333333334E-4 0.1068888888888889 0.0
3.333333333333334E-4 0.10700000000000001 0.0
4.4444444444444447E-4 0.0 0.0
4.4444444444444447E-4 3.846153846153846E-4 0.0
4.4444444444444447E-4 7.692307692307692E-4 0.0
4.4444444444444447E-4 0.0011538461538461537 0.0
4.4444444444444447E-4 0.0015384615384615385 0.0
4.4444444444444447E-4 0.0019230769230769232 0.0
4.4444444444444447E-4 0.0023076923076923075 0.0
4.4444444444444447E-4 0.002692307692307692 0.0
4.4444444444444447E-4 0.003076923076923077 0.0
4.4444444444444447E-4 0.0034615384615384616 0.0
4.4444444444444447E-4 0.0038461538461538464 0.0
4.4444444444444447E-4 0.004230769230769231 0.0
4.4444444444444447E-4 0.004615384615384615 0.0
4.4444444444444447E-4 0.005 0.0
4.4444444444444447E-4 0.005111111111111111 0.0
4.4444444444444447E-4 0.005222222222222223 0.0
4.4444444444444447E-4 0.005333333333333333 0.0
4.4444444444444447E-4 0.0054444444444444445 0.0
4.4444444444444447E-4 0.005555555555555556 0.0
4.4444444444444447E-4 0.005666666666666667 0.0
4.4444444444444447E-4 0.0057777777777777775 0.0
4.4444444444444447E-4 0.005888888888888889 0.0
4.4444444444444447E-4 0.006 0.0
4.4444444444444447E-4 0.01711111111111111 0.0
4.4444444444444447E-4 0.028222222222222225 0.0
4.4444444444444447E-4 0.03933333333333333 0.0
4.4444444444444447E-4 0.050444444444444445 0.0
4.4444444444444447E-4 0.06155555555555556 0.0
4.4444444444444447E-4 0.07266666666666667 0.0
4.4444444444444447E-4 0.08377777777777778 0.0
4.4444444444444447E-4 0.0948888888888889 0.0
4.4444444444444447E-4 0.10600000000000001 0.0
4.4444444444444447E-4 0.10611111111111113 0.0
4.4444444444444447E-4 0.10622222222222223 0.0
4.4444444444444447E-4 0.10633333333333335 0.0
4.4444444444444447E-4 0.10644444444444445 0.0
4.4444444444444447E-4 0.10655555555555557 0.0
4.4444444444444447E-4 0.10666666666666667 0.0
4.4444444444444447E-4 0.10677777777777779 0.0
4.4444444444444447E-4 0.1068888888888889 0.0
4.4444444444444447E-4 0.10700000000000001 0.0
5.555555555555556E-4 0.0 0.0
5.555555555555556E-4 3.846153846153846E-4 0.0
5.555555555555556E-4 7.692307692307692E-4 0.0
5.555555555555556E-4 0.0011538461538461537 0.0
5.555555555555556E-4 0.0015384615384615385 0.0
5.555555555555556E-4 0.0019230769230769232 0.0
5.555555555555556E-4 0.0023076923076923075 0.0
5.555555555555556E-4 0.002692307692307692 0.0
5.555555555555556E-4 0.003076923076923077 0.0
5.555555555555556E-4 0.0034615384615384616 0.0
5.555555555555556E-4 0.0038461538461538464 0.0
5.555555555555556E-4 0.004230769230769231 0.0
5.555555555555556E-4 0.004615384615384615 0.0
5.555555555555556E-4 0.005 0.0
5.555555555555556E-4 0.005111111111111111 0.0
5.555555555555556E-4 0.005222222222222223 0.0
5.555555555555556E-4 0.005333333333333333 0.0
5.555555555555556E-4 0.0054444444444444445 0.0
5.555555555555556E-4 0.005555555555555556 0.0
5.555555555555556E-4 0.005666666666666667 0.0
5.555555555555556E-4 0.0057777777777777775 0.0
5.555555555555556E-4 0.005888888888888889 0.0
5.555555555555556E-4 0.006 0.0
5.555555555555556E-4 0.01711111111111111 0.0
5.555555555555556E-4 0.028222222222222225 0.0
5.555555555555556E-4 0.03933333333333333 0.0
5.555555555555556E-4 0.050444444444444445 0.0
5.555555555555556E-4 0.06155555555555556 0.0
[...]
POINT_DATA 1353
SCALARS Temperatura float 1
LOOKUP_TABLE default
104.59140183695786
104.45934870829238
104.32582180301442
104.19078186920792
104.05418028479966
103.91595019414954
103.77599968183824
103.63419954772581
103.49036176251678
103.344190903653
103.1952170989335
103.04251395708961
102.88475965505056
102.71527999114967
102.53562850204426
102.36447532584467
102.1954140746829
102.02722496826706
101.859074364582
101.69033821377931
101.52047470600995
101.3489825534506
101.17538414520034
81.48494881799584
81.28218901821366
81.31696610106839
81.30838912784021
81.31068679564831
81.30933840076774
81.31295279368862
81.29416016595508
79.82491687850674
79.81202979193306
79.79930682988612
79.78671904856249
79.77423922358209
79.76184301480484
79.74950981156556
79.73722326938325
79.72497160095018
79.71274770474992
104.59651703478465
104.46445823822175
104.3309247648417
104.19587881093857
104.0592718327285
103.92103728104802
103.78108363291118
103.63928278731255
103.49544736870689
103.34928970018777
103.20032724741891
103.04773568112626
102.88983034322212
102.72226338367724
102.55072742735064
102.38041762611952
102.21190138105348
102.04404971509548
101.87616385659165
101.70765837084987
101.53800859431622
101.3667197176209
101.19331546320998
81.49566222610362
81.29525763283674
81.32942316100734
81.32100632539328
81.32325939205293
81.32193344293604
81.32550019127855
81.30688271104292
79.83709881908536
79.82422397778623
79.81151312269246
79.79893656876482
79.7864664932455
79.77407813172671
79.76175061342467
79.74946746053618
79.73721683266878
79.72499161453635
104.60179331593899
104.4697319512651
104.33619486157443
104.20114685988267
104.06453995909278
103.9263084132742
103.78636207656695
103.64457532966769
103.50076606427434
103.35465560589304
103.20578339884165
103.0533712750824
102.89577451716724
102.73043580020875
102.56260030853024
102.39499023662815
102.22787549075117
102.06103533914514
101.89397996950889
101.72622163507167
101.55727735330449
101.38666793594231
101.21391872793924
81.50265113714597
81.30940081569207
81.34171527135932
81.33378311575628
81.33590117558222
81.33464324682407
81.33806540319397
81.31998146292493
79.8491757148123
79.83634372567519
79.82367516076559
79.81113804405737
79.79870273846282
79.78634323265443
79.77403792837897
79.76177000633231
79.7495275151875
79.73730332876752
104.60723170417488
104.47516973272154
104.34163197343663
104.20658584330991
104.06998442630642
103.931763264426
103.79183442902445
103.6500764434438
103.50631546298949
103.36028807621165
103.21156999023148
103.05943513277522
102.90249714807445
102.73923184892655
102.57411863446247
102.40888930256158
102.24366350362942
102.07832859706586
101.91259197261721
101.74606204397291
101.5783026976033
101.40884961521472
101.23722311009283
81.5059040008147
81.32462324274154
81.35384079577712
81.3467200777598
81.34861195108493
81.3474680039868
81.35064809773179
81.33345726154799
79.86114558433108
79.8483897075509
79.83579599315637
79.82332836627488
79.81095407438953
79.79864510758753
79.78637883082918
79.7741380465516
79.76191077139349
79.74968995456302
104.61283268979393
104.48077152054826
104.34723587252601
104.21219546897613
104.07560484061374
103.9374012689949
103.79749980921339
103.65578462115761
103.51209276993903
103.36618244332581
103.21767350780952
103.06592283204941
102.90985108880317
102.7485227447776
102.58576929678203
102.4227813614876
102.2595874083075
102.09609211132725
101.9320748002658
101.76721310688863
101.60110664428281
101.43329508116332
101.26327721511583
81.50540196841938
81.3409325937336
81.36579701892114
81.35981815795694
81.36139138211705
81.36040802071508
81.36324771130165
81.34731148500589
79.87300503290135
79.8603634058243
79.84788137068384
79.83551643762169
79.82323133010054
79.81099550343153
79.79878533361307
79.78658354525734
79.7743784444441
79.7621632786888
104.61859643915686
104.48653719007957
104.35300624252467
104.21797532374988
104.08140065441778
103.94322164796603
103.80335701234063
103.66169779077184
103.51809436491908
103.37233144904475
103.22408070322317
103.0728076223244
102.91772144906753
102.75824686699717
102.59771359247416
102.4369218776584
102.27585913201284
102.1144352389463
101.9524680999602
101.7896790992824
101.62569137248084
101.46003202190805
101.29214986699856
81.50111866594548
81.35833961964691
81.3775801258194
81.37307867729379
81.37423898787193
81.37346372248628
81.37586343460288
81.36154609868316
79.88474907370662
79.87226783848597
79.8599410257455
79.84771651684227
79.8355510962022
79.82341175739373
79.8112746627564
79.79912332683456
79.78694700343532
79.77473963237033
104.62452289355359
104.49246651365445
104.3589426767324
104.22392487711275
104.0873711732636
103.94922342541905
103.8094045340014
103.66781341782277
103.52431573171137
103.3787263587291
103.23077581048447
103.0800526284912
102.92601969827159
102.76835306313448
102.60998953655496
102.45139587747256
102.29255070641445
102.13338037070959
101.9737411858997
101.81340079805041
101.65200870772983
101.48906745261222
101.32393177875332
81.49301972261293
81.37685827831321
81.38918516190911
81.3865033434761
81.38715413784108
81.38663566132828
81.38849418979856
81.37616373677587
79.89637083048386
79.88410914318501
79.87199125682744
79.85995061486433
79.84793732821127
79.83591755383304
79.82386947068397
79.81177897739866
79.79963728981751
79.78743959130158
104.63061181988033
104.49855914905206
104.36504467296506
104.23004348524914
104.09351556501157
103.95540544630269
103.81564061228738
103.67412857048501
103.5307516256268
103.38535733719789
103.2377403485652
103.08761767967671
102.93467382142445
102.77878749821612
102.62257551744256
102.46619391354689
102.3096346671094
102.15285650670926
101.99576937161586
101.8382119559152
101.67990855741422
101.52035038285716
101.35873892505299
81.48106183590583
81.39650599706276
81.40060595792178
81.40009427339548
81.40013604263687
81.39992452798231
81.40113859273507
81.39116783802048
79.90786104040524
79.89590041997616
79.88406014213443
79.87225278369658
79.8604231477015
79.84854348158446
79.83659776020482
79.82457646673342
79.81247400665568
79.80028742783178
104.63686283943842
104.50481463895785
104.37131163014229
104.23633039518066
104.09983287020276
103.96176639782942
103.82206327295894
103.68063999859226
103.53739627700324
103.39221370240604
103.24495389467388
103.09546234834667
102.94362148695018
102.7894916670366
102.63541541988586
102.48124910727806
102.32701243214919
102.172710391136
102.01832491023023
101.86380084947284
101.70901327632963
101.5536870606316
101.39671934412232
81.46519090926077
81.41730418697531
81.411834986091
81.41385403483352
81.41318373770791
81.41333117269723
81.41379488819577
81.40656287970609
79.91920719343484
79.90766904883189
79.89620323699123
79.88467311470676
79.87305185952398
79.86132682554853
79.84949223572717
79.8375453466342
79.82548487029024
79.81331025308567
104.64327544640754
104.51123241458367
104.37774284711803
104.24278474903886
104.1063220133377
103.96830483317048
103.82867037673957
103.68734422660826
103.54424358972685
103.39928423604869
103.25239501837106
103.10354707862454
102.95280599849826
102.80040369575534
102.64843344430108
102.4964604879583
102.34453896380533
102.19272742324722
102.04109087366024
101.88970394567863
101.73865595706489
101.58805957067894
84.2748360910571
84.2748360910571
84.2748360910571
84.2748360910571
84.2748360910571
84.2748360910571
84.2748360910571
84.2748360910571
84.2748360910571
84.2748360910571
79.91955230277935
79.90850829913222
79.89727831840567
79.88587561467784
79.87431002457105
79.86258886433352
79.85071744849063
79.83869940036485
79.82653683878465
105.63034651647565
105.50000904822501
105.37124318906874
105.24406754632078
105.11851299857169
104.99462284818367
104.87245300841629
104.75207209084117
104.63356112128938
104.5170123514825
104.40252611204669
104.29020375254174
104.18013435215627
104.07237587856983
103.96670170514132
103.86126978125807
103.75607734878419
103.65112053772569
103.54639380815496
103.44188908857252
103.33759440313906
103.23349153132125
84.2748360910571
84.2748360910571
84.2748360910571
84.2748360910571
84.2748360910571
84.2748360910571
84.2748360910571
84.2748360910571
84.2748360910571
84.2748360910571
81.45659345024214
81.44093621740292
81.42570446061035
81.41089329684677
81.39649895892764
81.38251855144372
81.36894990900088
81.3557915109602
81.34304242998662
106.27906355902518
106.14846389008412
106.01863552724004
105.8895714716112
105.76125984243863
105.63368370367719
105.5068208264101
105.38064342118122
105.25511791119771
105.13020488838777
105.00585953715307
104.88203305898276
104.75867574199903
104.63574153767419
104.51396632253676
104.39227059075695
104.27065187333098
104.14910795973937
104.02763704691483
103.90623797004088
103.78491057106734
103.66365632768391
84.2748360910571
84.2748360910571
84.2748360910571
84.2748360910571
84.2748360910571
84.2748360910571
84.2748360910571
84.2748360910571
84.2748360910571
84.2748360910571
81.47609353309213
81.46346383295344
81.45084046893415
81.43822533272801
81.4256199207332
81.41302540086608
81.40044265164524
81.387872285863
81.37531466495136
106.6218923791226
106.4913229723791
106.36144713419947
106.23226697185532
106.1037859609798
105.97600903657597
105.84894272031502
105.7225952762541
105.59697687745367
105.4720997469038
105.34797819730781
105.22462842607526
105.1020678886631
104.98031427760033
104.85993947256475
104.73968500792432
104.61955219758288
104.49954229963397
104.37965647748946
104.25989573896409
104.14026083826869
104.02075210790746
84.2748360910571
84.2748360910571
84.2748360910571
84.2748360910571
84.2748360910571
84.2748360910571
84.2748360910571
84.2748360910571
84.2748360910571
84.2748360910571
81.47595624952969
81.4625595652371
81.44927724568736
81.43610860620679
81.42305309279236
81.41011026367893
81.39727977845043
81.38456139138137
81.3719549473654
106.81490063682958
106.68432926970243
106.55436714476339
106.42501375456654
106.29626814562262
106.16812888125425
106.04059398905456
105.91366089448024
105.78732634455606
105.66158633070388
105.53643603018787
105.41186980429126
105.28788130108033
105.1644636572137
105.04230093705237
104.92023495614492
104.7982651243266
104.6763908611213
104.55461160565875
104.43292683252669
104.31133607761014
104.18983898279514
84.2748360910571
84.2748360910571
84.2748360910571
84.2748360910571
84.2748360910571
84.2748360910571
84.2748360910571
84.2748360910571
84.2748360910571
84.2748360910571
81.47595752921012
81.46276121116571
81.44965054895283
81.4366257431999
81.42368695286724
81.41083430036868
81.39806787463334
81.3853877329993
81.37279390238177
106.91809619332656
106.78752347110532
106.65751498988713
106.52807096510891
106.39919168705855
106.27087753434937
106.14312899315792
106.01594668204116
105.88933138155379
105.76328406657983
105.63780593648639
105.51289843313411
105.38856323396706
105.26480222145281
105.14230405021914
105.01990447638343
104.89760368572774
104.77540186261953
104.65329918754058
104.53129583301241
104.40939195682279
104.28758769015491
84.2748360910571
84.2748360910571
84.2748360910571
84.2748360910571
84.2748360910571
84.2748360910571
84.2748360910571
84.2748360910571
84.2748360910571
84.2748360910571
81.4759757997344
81.46272696663154
81.44957144343914
81.43650914209971
81.42353998747382
81.41066391590121
81.39788087432876
81.38519081976425
81.37259371893612
106.96857897307737
106.83800657290116
106.70797819817076
106.57849389608879
106.44955366750526
106.32115746210381
106.19330517146625
106.06599661997409
105.93923155364703
105.8130096273666
105.68733039171764
105.56219328213531
105.43759761389066
105.3135425825204
105.1907334277223
105.0680195826652
104.94540097279028
104.82287752316218
104.70044915909536
104.57811580724001
104.45587739744136
104.33373386606011
84.2748360910571
84.2748360910571
84.2748360910571
84.2748360910571
84.2748360910571
84.2748360910571
84.2748360910571
84.2748360910571
84.2748360910571
84.2748360910571
81.4759665764578
81.46273176447522
81.4495881826474
81.43653583583185
81.42357472457088
81.41070484552503
81.39792619173988
81.38523875281567
81.37264251501405
106.98364894306407
106.8530762685577
106.72304087747234
106.59354287020368
106.46458234207202
106.33615938609837
106.2082740970328
106.0809265766974
105.95411694065014
105.82784532601404
105.70211189993343
105.57691686739496
105.45226047671532
105.32814302293401
105.2052714782301
105.08249532336686
104.95981459786981
104.83722934142966
104.7147395936258
104.59234539342035
104.47004677826445
104.34784378247242
84.2748360910571
84.2748360910571
84.2748360910571
84.2748360910571
84.2748360910571
84.2748360910571
84.2748360910571
84.2748360910571
84.2748360910571
84.2748360910571
81.4759707643127
81.46273137415295
81.4495839062667
81.43652832945664
81.42356461480679
81.4106927354563
81.39791266645825
81.38522438468935
81.37262786879228
106.968578973077
106.83800657290077
106.70797819817031
106.57849389608823
106.44955366750452
106.32115746210282
106.19330517146506
106.06599661997278
105.93923155364561
105.81300962736493
105.68733039171569
105.56219328213302
105.43759761388803
105.31354258251741
105.19073342771897
105.06801958266152
104.94540097278633
104.82287752315796
104.70044915909087
104.57811580723536
104.45587739743661
104.33373386605527
84.2748360910571
84.2748360910571
84.2748360910571
84.2748360910571
84.2748360910571
84.2748360910571
84.2748360910571
84.2748360910571
84.2748360910571
84.2748360910571
81.47596657644992
81.46273176446735
81.44958818263953
81.43653583582396
81.42357472456295
81.41070484551703
81.39792619173186
81.38523875280764
81.37264251500604
106.91809619333124
106.78752347110999
106.65751498989182
106.52807096511368
106.39919168706342
106.27087753435437
106.14312899316296
106.01594668204616
105.88933138155873
105.76328406658482
105.63780593649147
105.51289843313934
105.38856323397243
105.2648022214584
105.14230405022492
105.01990447638939
104.89760368573386
104.77540186262587
104.65329918754703
104.53129583301892
104.4093919568293
104.2875876901614
84.2748360910571
84.2748360910571
84.2748360910571
84.2748360910571
84.2748360910571
84.2748360910571
84.2748360910571
84.2748360910571
84.2748360910571
84.2748360910571
81.4759757997098
81.46272696660682
81.4495714434143
81.43650914207471
81.42353998744869
81.41066391587599
81.39788087430344
81.38519081973888
81.37259371891075
106.8149006368372
106.68432926971008
106.55436714477112
106.42501375457432
106.29626814563038
106.16812888126186
106.04059398906213
105.91366089448776
105.78732634456348
105.66158633071106
105.53643603019475
105.41186980429777
105.28788130108646
105.1644636572194
105.04230093705775
104.92023495615004
104.79826512433155
104.67639086112611
104.55461160566344
104.4329268325313
104.31133607761473
104.18983898279966
84.2748360910571
84.2748360910571
84.2748360910571
84.2748360910571
84.2748360910571
84.2748360910571
84.2748360910571
84.2748360910571
84.2748360910571
84.2748360910571
81.47595752920829
81.4627612111639
81.44965054895104
81.43662574319814
81.42368695286552
81.41083430036703
81.39806787463172
81.38538773299767
81.37279390238014
106.62189237914032
106.49132297239682
106.36144713421714
106.23226697187293
106.10378596099734
105.97600903659348
105.84894272033249
105.7225952762715
105.59697687747109
105.47209974692129
105.34797819732536
105.22462842609286
105.10206788868072
104.98031427761799
104.8599394725824
104.73968500794199
104.61955219760044
104.49954229965132
104.37965647750671
104.2598957389812
104.14026083828557
104.02075210792417
84.2748360910571
84.2748360910571
84.2748360910571
84.2748360910571
84.2748360910571
84.2748360910571
84.2748360910571
84.2748360910571
84.2748360910571
84.2748360910571
81.47595624952575
81.46255956523315
81.44927724568339
81.43610860620284
81.42305309278838
81.41011026367492
81.39727977844642
81.38456139137739
81.37195494736143
106.27906355904759
106.14846389010654
106.01863552726257
105.88957147163386
105.7612598424614
105.63368370370009
105.50682082643314
105.38064342120437
105.25511791122096
105.13020488841109
105.00585953717646
104.88203305900628
104.75867574202276
104.63574153769812
104.51396632256095
104.39227059078135
104.27065187335559
104.14910795976425
104.02763704693987
103.90623797006606
103.78491057109264
103.6636563277092
84.2748360910571
84.2748360910571
84.2748360910571
84.2748360910571
84.2748360910571
84.2748360910571
84.2748360910571
84.2748360910571
84.2748360910571
84.2748360910571
81.47609353307594
81.46346383293715
81.45084046891776
81.43822533271154
81.4256199207167
81.41302540084956
81.40044265162874
81.38787228584656
81.37531466493493
105.63034651648127
105.50000904823064
105.37124318907438
105.24406754632643
105.11851299857734
104.99462284818928
104.87245300842181
104.75207209084662
104.63356112129479
104.51701235148794
104.40252611205214
104.2902037525472
104.1801343521617
104.07237587857526
103.96670170514668
103.86126978126339
103.75607734878945
103.6511205377308
103.54639380816005
103.44188908857754
103.33759440314395
103.23349153132607
84.2748360910571
84.2748360910571
84.2748360910571
84.2748360910571
84.2748360910571
84.2748360910571
84.2748360910571
84.2748360910571
84.2748360910571
84.2748360910571
81.4565934502436
81.44093621740437
81.42570446061178
81.4108932968482
81.39649895892904
81.38251855144505
81.36894990900213
81.35579151096138
81.34304242998779
104.64327544640811
104.51123241458423
104.37774284711855
104.2427847490393
104.10632201333813
103.96830483317093
103.82867037674013
103.68734422660893
103.54424358972761
103.39928423604954
103.252395018372
103.10354707862558
102.95280599849943
102.80040369575651
102.64843344430231
102.49646048795962
102.34453896380674
102.1927274232488
102.04109087366189
101.88970394568035
101.73865595706667
101.58805957068076
84.2748360910571
84.2748360910571
84.2748360910571
84.2748360910571
84.2748360910571
84.2748360910571
84.2748360910571
84.2748360910571
84.2748360910571
84.2748360910571
79.91955230276717
79.90850829912011
79.89727831839365
79.88587561466586
79.87431002455912
79.86258886432167
79.85071744847886
79.83869940035311
79.8265368387729
104.63686283943905
104.50481463895846
104.3713116301428
104.23633039518111
104.09983287020317
103.96176639782983
103.82206327295951
103.68063999859297
103.53739627700409
103.3922137024069
103.2449538946748
103.09546234834785
102.94362148695141
102.78949166703785
102.63541541988721
102.48124910727944
102.32701243215067
102.17271039113751
102.01832491023187
101.86380084947452
101.70901327633126
101.5536870606333
101.39671934412405
81.46519090927062
81.41730418700982
81.41183498610364
81.413854034846
81.41318373775579
81.41333117270837
81.41379488819392
81.4065628797084
79.9192071934226
79.90766904881961
79.89620323697902
79.88467311469464
79.87305185951192
79.86132682553651
79.84949223571519
79.83754534662222
79.82548487027834
79.81331025307375
104.63061181988095
104.49855914905257
104.36504467296562
104.23004348524955
104.09351556501191
103.95540544630313
103.81564061228796
103.6741285704859
103.53075162562773
103.38535733719888
103.23774034856612
103.08761767967799
102.93467382142575
102.77878749821747
102.62257551744395
102.46619391354834
102.30963466711086
102.15285650671078
101.99576937161747
101.83821195591679
101.67990855741579
101.52035038285878
101.35873892505467
81.48106183591585
81.39650599709742
81.40060595793443
81.400094273408
81.40013604268496
81.39992452799336
81.40113859273333
81.39116783802265
79.90786104039282
79.89590041996377
79.8840601421221
79.87225278368433
79.86042314768932
79.84854348157232
79.83659776019269
79.82457646672131
79.81247400664354
79.80028742781967
104.62452289355419
104.49246651365495
104.35894267673294
104.22392487711308
104.08737117326405
103.94922342541943
103.80940453400196
103.66781341782367
103.52431573171239
103.37872635873012
103.2307758104854
103.08005262849255
102.926019698273
102.7683530631359
102.60998953655638
102.45139587747401
102.29255070641592
102.13338037071115
101.97374118590128
101.81340079805203
101.65200870773143
101.48906745261387
101.3239317787549
81.49301972262312