# vtk DataFile Version 2.0
Niestacjonarne zagadnienie cieplne - ogrzewanie wody w garnku stalowym
ASCII
DATASET UNSTRUCTURED_GRID
POINTS 1353 float
0.0 0.0 0.0
0.0 3.846153846153846E-4 0.0
0.0 7.692307692307692E-4 0.0
0.0 0.0011538461538461537 0.0
0.0 0.0015384615384615385 0.0
0.0 0.0019230769230769232 0.0
0.0 0.0023076923076923075 0.0
0.0 0.002692307692307692 0.0
0.0 0.003076923076923077 0.0
0.0 0.0034615384615384616 0.0
0.0 0.0038461538461538464 0.0
0.0 0.004230769230769231 0.0
0.0 0.004615384615384615 0.0
0.0 0.005 0.0
0.0 0.005111111111111111 0.0
0.0 0.005222222222222223 0.0
0.0 0.005333333333333333 0.0
0.0 0.0054444444444444445 0.0
0.0 0.005555555555555556 0.0
0.0 0.005666666666666667 0.0
0.0 0.0057777777777777775 0.0
0.0 0.005888888888888889 0.0
0.0 0.006 0.0
0.0 0.01711111111111111 0.0
0.0 0.028222222222222225 0.0
0.0 0.03933333333333333 0.0
0.0 0.050444444444444445 0.0
0.0 0.06155555555555556 0.0
0.0 0.07266666666666667 0.0
0.0 0.08377777777777778 0.0
0.0 0.0948888888888889 0.0
0.0 0.10600000000000001 0.0
0.0 0.10611111111111113 0.0
0.0 0.10622222222222223 0.0
0.0 0.10633333333333335 0.0
0.0 0.10644444444444445 0.0
0.0 0.10655555555555557 0.0
0.0 0.10666666666666667 0.0
0.0 0.10677777777777779 0.0
0.0 0.1068888888888889 0.0
0.0 0.10700000000000001 0.0
1.1111111111111112E-4 0.0 0.0
1.1111111111111112E-4 3.846153846153846E-4 0.0
1.1111111111111112E-4 7.692307692307692E-4 0.0
1.1111111111111112E-4 0.0011538461538461537 0.0
1.1111111111111112E-4 0.0015384615384615385 0.0
1.1111111111111112E-4 0.0019230769230769232 0.0
1.1111111111111112E-4 0.0023076923076923075 0.0
1.1111111111111112E-4 0.002692307692307692 0.0
1.1111111111111112E-4 0.003076923076923077 0.0
1.1111111111111112E-4 0.0034615384615384616 0.0
1.1111111111111112E-4 0.0038461538461538464 0.0
1.1111111111111112E-4 0.004230769230769231 0.0
1.1111111111111112E-4 0.004615384615384615 0.0
1.1111111111111112E-4 0.005 0.0
1.1111111111111112E-4 0.005111111111111111 0.0
1.1111111111111112E-4 0.005222222222222223 0.0
1.1111111111111112E-4 0.005333333333333333 0.0
1.1111111111111112E-4 0.0054444444444444445 0.0
1.1111111111111112E-4 0.005555555555555556 0.0
1.1111111111111112E-4 0.005666666666666667 0.0
1.1111111111111112E-4 0.0057777777777777775 0.0
1.1111111111111112E-4 0.005888888888888889 0.0
1.1111111111111112E-4 0.006 0.0
1.1111111111111112E-4 0.01711111111111111 0.0
1.1111111111111112E-4 0.028222222222222225 0.0
1.1111111111111112E-4 0.03933333333333333 0.0
1.1111111111111112E-4 0.050444444444444445 0.0
1.1111111111111112E-4 0.06155555555555556 0.0
1.1111111111111112E-4 0.07266666666666667 0.0
1.1111111111111112E-4 0.08377777777777778 0.0
1.1111111111111112E-4 0.0948888888888889 0.0
1.1111111111111112E-4 0.10600000000000001 0.0
1.1111111111111112E-4 0.10611111111111113 0.0
1.1111111111111112E-4 0.10622222222222223 0.0
1.1111111111111112E-4 0.10633333333333335 0.0
1.1111111111111112E-4 0.10644444444444445 0.0
1.1111111111111112E-4 0.10655555555555557 0.0
1.1111111111111112E-4 0.10666666666666667 0.0
1.1111111111111112E-4 0.10677777777777779 0.0
1.1111111111111112E-4 0.1068888888888889 0.0
1.1111111111111112E-4 0.10700000000000001 0.0
2.2222222222222223E-4 0.0 0.0
2.2222222222222223E-4 3.846153846153846E-4 0.0
2.2222222222222223E-4 7.692307692307692E-4 0.0
2.2222222222222223E-4 0.0011538461538461537 0.0
2.2222222222222223E-4 0.0015384615384615385 0.0
2.2222222222222223E-4 0.0019230769230769232 0.0
2.2222222222222223E-4 0.0023076923076923075 0.0
2.2222222222222223E-4 0.002692307692307692 0.0
2.2222222222222223E-4 0.003076923076923077 0.0
2.2222222222222223E-4 0.0034615384615384616 0.0
2.2222222222222223E-4 0.0038461538461538464 0.0
2.2222222222222223E-4 0.004230769230769231 0.0
2.2222222222222223E-4 0.004615384615384615 0.0
2.2222222222222223E-4 0.005 0.0
2.2222222222222223E-4 0.005111111111111111 0.0
2.2222222222222223E-4 0.005222222222222223 0.0
2.2222222222222223E-4 0.005333333333333333 0.0
2.2222222222222223E-4 0.0054444444444444445 0.0
2.2222222222222223E-4 0.005555555555555556 0.0
2.2222222222222223E-4 0.005666666666666667 0.0
2.2222222222222223E-4 0.0057777777777777775 0.0
2.2222222222222223E-4 0.005888888888888889 0.0
2.2222222222222223E-4 0.006 0.0
2.2222222222222223E-4 0.01711111111111111 0.0
2.2222222222222223E-4 0.028222222222222225 0.0
2.2222222222222223E-4 0.03933333333333333 0.0
2.2222222222222223E-4 0.050444444444444445 0.0
2.2222222222222223E-4 0.06155555555555556 0.0
2.2222222222222223E-4 0.07266666666666667 0.0
2.2222222222222223E-4 0.08377777777777778 0.0
2.2222222222222223E-4 0.0948888888888889 0.0
2.2222222222222223E-4 0.10600000000000001 0.0
2.2222222222222223E-4 0.10611111111111113 0.0
2.2222222222222223E-4 0.10622222222222223 0.0
2.2222222222222223E-4 0.10633333333333335 0.0
2.2222222222222223E-4 0.10644444444444445 0.0
2.2222222222222223E-4 0.10655555555555557 0.0
2.2222222222222223E-4 0.10666666666666667 0.0
2.2222222222222223E-4 0.10677777777777779 0.0
2.2222222222222223E-4 0.1068888888888889 0.0
2.2222222222222223E-4 0.10700000000000001 0.0
3.333333333333334E-4 0.0 0.0
3.333333333333334E-4 3.846153846153846E-4 0.0
3.333333333333334E-4 7.692307692307692E-4 0.0
3.333333333333334E-4 0.0011538461538461537 0.0
3.333333333333334E-4 0.0015384615384615385 0.0
3.333333333333334E-4 0.0019230769230769232 0.0
3.333333333333334E-4 0.0023076923076923075 0.0
3.333333333333334E-4 0.002692307692307692 0.0
3.333333333333334E-4 0.003076923076923077 0.0
3.333333333333334E-4 0.0034615384615384616 0.0
3.333333333333334E-4 0.0038461538461538464 0.0
3.333333333333334E-4 0.004230769230769231 0.0
3.333333333333334E-4 0.004615384615384615 0.0
3.333333333333334E-4 0.005 0.0
3.333333333333334E-4 0.005111111111111111 0.0
3.333333333333334E-4 0.005222222222222223 0.0
3.333333333333334E-4 0.005333333333333333 0.0
3.333333333333334E-4 0.0054444444444444445 0.0
3.333333333333334E-4 0.005555555555555556 0.0
3.333333333333334E-4 0.005666666666666667 0.0
3.333333333333334E-4 0.0057777777777777775 0.0
3.333333333333334E-4 0.005888888888888889 0.0
3.333333333333334E-4 0.006 0.0
3.333333333333334E-4 0.01711111111111111 0.0
3.333333333333334E-4 0.028222222222222225 0.0
3.333333333333334E-4 0.03933333333333333 0.0
3.333333333333334E-4 0.050444444444444445 0.0
3.333333333333334E-4 0.06155555555555556 0.0
3.333333333333334E-4 0.07266666666666667 0.0
3.333333333333334E-4 0.08377777777777778 0.0
3.333333333333334E-4 0.0948888888888889 0.0
3.333333333333334E-4 0.10600000000000001 0.0
3.333333333333334E-4 0.10611111111111113 0.0
3.333333333333334E-4 0.10622222222222223 0.0
3.333333333333334E-4 0.10633333333333335 0.0
3.333333333333334E-4 0.10644444444444445 0.0
3.333333333333334E-4 0.10655555555555557 0.0
3.333333333333334E-4 0.10666666666666667 0.0
3.333333333333334E-4 0.10677777777777779 0.0
3.333333333333334E-4 0.1068888888888889 0.0
3.333333333333334E-4 0.10700000000000001 0.0
4.4444444444444447E-4 0.0 0.0
4.4444444444444447E-4 3.846153846153846E-4 0.0
4.4444444444444447E-4 7.692307692307692E-4 0.0
4.4444444444444447E-4 0.0011538461538461537 0.0
4.4444444444444447E-4 0.0015384615384615385 0.0
4.4444444444444447E-4 0.0019230769230769232 0.0
4.4444444444444447E-4 0.0023076923076923075 0.0
4.4444444444444447E-4 0.002692307692307692 0.0
4.4444444444444447E-4 0.003076923076923077 0.0
4.4444444444444447E-4 0.0034615384615384616 0.0
4.4444444444444447E-4 0.0038461538461538464 0.0
4.4444444444444447E-4 0.004230769230769231 0.0
4.4444444444444447E-4 0.004615384615384615 0.0
4.4444444444444447E-4 0.005 0.0
4.4444444444444447E-4 0.005111111111111111 0.0
4.4444444444444447E-4 0.005222222222222223 0.0
4.4444444444444447E-4 0.005333333333333333 0.0
4.4444444444444447E-4 0.0054444444444444445 0.0
4.4444444444444447E-4 0.005555555555555556 0.0
4.4444444444444447E-4 0.005666666666666667 0.0
4.4444444444444447E-4 0.0057777777777777775 0.0
4.4444444444444447E-4 0.005888888888888889 0.0
4.4444444444444447E-4 0.006 0.0
4.4444444444444447E-4 0.01711111111111111 0.0
4.4444444444444447E-4 0.028222222222222225 0.0
4.4444444444444447E-4 0.03933333333333333 0.0
4.4444444444444447E-4 0.050444444444444445 0.0
4.4444444444444447E-4 0.06155555555555556 0.0
4.4444444444444447E-4 0.07266666666666667 0.0
4.4444444444444447E-4 0.08377777777777778 0.0
4.4444444444444447E-4 0.0948888888888889 0.0
4.4444444444444447E-4 0.10600000000000001 0.0
4.4444444444444447E-4 0.10611111111111113 0.0
4.4444444444444447E-4 0.10622222222222223 0.0
4.4444444444444447E-4 0.10633333333333335 0.0
4.4444444444444447E-4 0.10644444444444445 0.0
4.4444444444444447E-4 0.10655555555555557 0.0
4.4444444444444447E-4 0.10666666666666667 0.0
4.4444444444444447E-4 0.10677777777777779 0.0
4.4444444444444447E-4 0.1068888888888889 0.0
4.4444444444444447E-4 0.10700000000000001 0.0
5.555555555555556E-4 0.0 0.0
5.555555555555556E-4 3.846153846153846E-4 0.0
5.555555555555556E-4 7.692307692307692E-4 0.0
5.555555555555556E-4 0.0011538461538461537 0.0
5.555555555555556E-4 0.0015384615384615385 0.0
5.555555555555556E-4 0.0019230769230769232 0.0
5.555555555555556E-4 0.0023076923076923075 0.0
5.555555555555556E-4 0.002692307692307692 0.0
5.555555555555556E-4 0.003076923076923077 0.0
5.555555555555556E-4 0.0034615384615384616 0.0
5.555555555555556E-4 0.0038461538461538464 0.0
5.555555555555556E-4 0.004230769230769231 0.0
5.555555555555556E-4 0.004615384615384615 0.0
5.555555555555556E-4 0.005 0.0
5.555555555555556E-4 0.005111111111111111 0.0
5.555555555555556E-4 0.005222222222222223 0.0
5.555555555555556E-4 0.005333333333333333 0.0
5.555555555555556E-4 0.0054444444444444445 0.0
5.555555555555556E-4 0.005555555555555556 0.0
5.555555555555556E-4 0.005666666666666667 0.0
5.555555555555556E-4 0.0057777777777777775 0.0
5.555555555555556E-4 0.005888888888888889 0.0
5.555555555555556E-4 0.006 0.0
5.555555555555556E-4 0.01711111111111111 0.0
5.555555555555556E-4 0.028222222222222225 0.0
5.555555555555556E-4 0.03933333333333333 0.0
5.555555555555556E-4 0.050444444444444445 0.0
5.555555555555556E-4 0.06155555555555556 0.0
[...]
POINT_DATA 1353
SCALARS Temperatura float 1
LOOKUP_TABLE default
138.07673087705115
137.95140308437587
137.82425201918335
137.69523459422052
137.5642954626667
137.43135739814647
137.29631298742217
137.15900934883314
137.01922114944128
136.87658860115513
136.73053539481378
136.579896161657
136.42304942791475
136.25103740787938
136.0651729974025
135.89147196055293
135.72102201543336
135.55220724132244
135.38396271622037
135.21552681264768
135.04626155458016
134.87559206533533
134.70297970712974
115.34431688186274
115.14865817668506
115.18206818449708
115.17378370019652
115.17610818370609
115.174357374887
115.1797327919329
115.1510051688927
112.92440863179182
112.90463253797702
112.88509229572979
112.86573973779201
112.84652957711421
112.82742133574727
112.80838074435005
112.78938063077949
112.77040140187832
112.75143125648604
138.08384887903816
137.9585158710462
137.83135877390183
137.70233596206853
137.5713921942872
137.4384506132496
137.30340428821142
137.16610175651317
137.02631836592428
136.88370475149088
136.73766588895552
136.5871780744927
136.43010626170064
136.2607569298789
136.08626911300055
135.91372169894169
135.7440024755942
135.57562249796166
135.40770615943333
135.2395464183585
135.07053037603904
134.90009392292131
134.7277025117728
115.36198402848166
115.16863148725459
115.20144223156699
115.1933151251261
115.19559429640913
115.1938715855126
115.19917672246872
115.17071260829978
112.94330303128667
112.92354767854688
112.90402792451746
112.88469437431333
112.8655007499981
112.84640587115659
112.82737503779984
112.80838085703786
112.78940364777247
112.77043158599119
138.09114721647472
137.96581219712962
137.83865233224253
137.70962865242598
137.5786865591625
137.44575016679676
137.31071426674518
137.17343050921653
137.03368093497704
136.89112745011397
136.7452032007316
136.59494401301703
136.43826046680024
136.27195807748436
136.10255777194703
135.93368321164135
135.76580118437016
135.5986971254509
135.43178819352104
135.26450539744383
135.09629726657607
134.92662670395663
134.75496833675282
115.37598555291278
115.18963747793984
115.22063453431458
115.21298372121451
115.21512573036895
115.21348819044339
115.21858002244707
115.19091882678713
112.96197925843846
112.94229561782308
112.92284658841118
112.90357898108773
112.88444351365877
112.86539694138611
112.8464033600428
112.82743481133598
112.80847143032612
112.78950137477702
138.09862688944688
137.9732919233966
137.84613254674355
137.71711245868514
137.58617827111507
137.4532556642007
137.31824219562205
137.18099472673597
137.0413057565337
136.89885639415726
136.75312633170648
136.6032158861853
136.44738176186738
136.2838511080159
136.1180830131836
135.95234620282108
135.78689140484306
135.62165202459454
135.4563202285472
135.29046286254106
135.123598843634
134.95522078136014
134.78480877204177
115.38630933972894
115.2116809387621
115.23964342648132
115.23279007376688
115.2347022641584
115.23320744171099
115.23794216953057
115.2116251368521
112.98043407218546
112.96087750967014
112.94155337807172
112.92240169991906
112.90336803489747
112.88440583020984
112.86547746571686
112.8465543567764
112.82761658490236
112.80865243218686
138.10628834821807
137.98095494629948
137.85379914303346
137.724787031298
137.59386685797682
137.4609664186168
137.32598699164188
137.18879253437814
137.04918931899235
136.9068857796165
136.76141771289122
136.61199023445724
136.45726856777074
136.29626421182135
136.13354365673683
135.97066706917346
135.80774951170721
135.64474210861223
135.48143363993017
135.31748767901306
135.1524788585468
134.98591841204868
134.81727627637954
115.39293564228626
115.23476973152209
115.25846614878796
115.25273514232997
115.25432352062917
115.25302974951542
115.2572622850474
115.23283370670887
112.99866192367875
112.97929588461439
112.96015789305427
112.94117734733639
112.92229231888952
112.9034520616113
112.88461731929704
112.8657593777446
112.84685879623709
112.82790434977491
138.11413170294824
137.9888010829972
137.86165173986933
137.73265187765705
137.60175166389976
137.46888148543198
137.33394717544348
137.19682135389053
137.0573271010531
136.91520642956735
136.77006065156615
136.621233175898
136.46776652636382
136.30912394324537
136.14918737294278
135.98903356040793
135.82870905914626
135.66816189416926
135.50722633908688
135.34562322038508
135.18296468259877
135.01876163673919
134.8524447027636
115.39583692400873
115.25891483919517
115.2770988330343
115.2728202662833
115.27398896348478
115.27295568906563
115.27653911130727
115.25454764156609
113.016654660361
112.99755585410227
112.97867636451731
112.95992964381435
112.94124394227421
112.92256444703176
112.90385154975573
112.8850778397912
112.86622544262558
112.84728427788187
138.12215682287035
137.9968300313487
137.8696898477781
137.74070636668142
137.60983185846496
137.47699968346586
137.34212090107562
137.2050780383701
137.06571345500134
136.92380732584348
136.77903535105278
136.63089742661458
136.4787600013425
136.32237519283473
136.165095029566
136.00760357032752
135.84992046817345
135.69200154966876
135.5337197415158
135.3748481502609
135.21503395031445
135.05377283987974
134.89041066677532
115.39497746661905
115.28413048051007
115.29553646764148
115.29304717603883
115.29369789119673
115.29298601191852
115.29577097410288
115.27677111854315
113.03440103325734
113.01566774858111
112.99713594273871
112.97869517940589
112.96026269951926
112.94178233752949
112.9232178039223
112.90454562704345
112.88575117672194
112.86682642958883
138.130363387342
138.0050413587988
137.87791286469678
137.74894973422198
137.61810644860066
137.48531961738527
137.35050600990448
137.21355895315602
137.07434182115043
136.93267609573715
136.78831854949806
136.6409317385411
136.49015793676304
136.33596221553884
136.1812697761918
136.0264118780447
135.87140869796042
135.71624082265373
135.56083266936616
135.40503058964265
135.24856132135798
135.0909164835789
134.93129660721615
115.39031251726257
115.31043435095569
115.31377282814022
115.31341801445618
115.31344942637014
115.31312166476627
115.31495572053399
115.29950961158083
113.0518858724083
113.03365353385274
113.01558338413109
112.99753045060623
112.97940358521265
112.96115654819376
112.94276262233228
112.92420591745378
112.90547708084176
112.88657117455172
138.13875091507418
138.01343450236755
137.88632007340027
137.75738108874182
137.62657429194672
137.49383970485152
137.3591000880665
137.22226007482124
137.08320498985486
136.94179932078546
136.79788451144157
136.65128498437372
136.50188387722238
136.34982513499696
136.19767137861655
136.04542110478354
135.89311230332422
135.74076520090483
135.58837327446105
135.43588936033802
135.28319359488611
135.13001295865308
134.97525729805596
115.38178650224128
115.33784811705722
115.33180033844427
115.33393537801973
115.33324249661815
115.3333638218401
115.33409061148889
115.32277028261144
113.06908864690793
113.0515599319734
113.03411040580966
113.01651853658646
112.99873848936872
112.98074901951439
112.96254036784143
112.94410785701938
112.9254492633971
112.90656361951554
138.14731878307853
138.02200877284355
137.89491064125156
137.76599941727977
137.63523411136742
137.50255820663602
137.36790052637122
137.2311771087156
137.0922953544359
136.9511629213647
136.80770623726193
136.66190753692547
136.51386984897573
136.3639008434859
136.21423537116112
136.06455202190506
135.91491474007537
135.76539130118547
135.61605515120738
135.46698846570004
135.3182871939949
135.1700697766565
119.23579020094647
119.23579020094647
119.23579020094647
119.23579020094647
119.23579020094647
119.23579020094647
119.23579020094647
119.23579020094647
119.23579020094647
119.23579020094647
113.0696094781185
113.0528625111603
113.03577011598598
113.01835400890872
113.00063027038892
112.98261084561996
112.96430440458653
112.94571685639725
112.92685165836872
139.37362033656578
139.2502819069326
139.12860887054168
139.00862252794266
138.8903582507339
138.7738656506585
138.65920876791256
138.54646610934432
138.4357301940386
138.3271059322064
138.22070650309846
138.1166442804538
138.01501414818637
137.91587141998374
137.81883376805308
137.72203936114386
137.62548448634843
137.52916448093023
137.43307322665814
137.3372023155761
137.2415396812023
137.14606724119886
119.23579020094647
119.23579020094647
119.23579020094647
119.23579020094647
119.23579020094647
119.23579020094647
119.23579020094647
119.23579020094647
119.23579020094647
119.23579020094647
115.39811420439834
115.37445659368484
115.35137350715338
115.32885714409707
115.30690151501793
115.28550203361647
115.26465528186681
115.2443588689096
115.22461134595936
140.17253172576983
140.04889114731043
139.9259726017119
139.8037679976804
139.68226362289576
139.5614399465011
139.44127135343132
139.3217258538699
139.20276485771072
139.08434319423543
138.9664097382206
138.848909312224
138.73178660747197
138.61499158481618
138.49925117140333
138.3835699468344
138.26794521380126
138.15237448541092
138.036855620089
137.92138704494715
137.80596812307465
137.6905997868235
119.23579020094647
119.23579020094647
119.23579020094647
119.23579020094647
119.23579020094647
119.23579020094647
119.23579020094647
119.23579020094647
119.23579020094647
119.23579020094647
115.42801942660618
115.40893023681171
115.38978197091942
115.37057761632761
115.35131952972552
115.33200954865673
115.31264905619582
115.2932390200538
115.27378001628603
140.59650440694276
140.47289834128838
140.34991208207543
140.22754800245534
140.1058100403984
139.98470380277837
139.86423670964626
139.74441816851845
139.62525975624382
139.50677536169525
139.38898119322394
139.27189546997184
139.15553759222092
139.03992692286045
138.92561146710662
138.81139967306572
138.69729298707895
138.58329281412367
138.4694004828423
138.35561718676905
138.24194388682398
138.1283811422495
119.23579020094647
119.23579020094647
119.23579020094647
119.23579020094647
119.23579020094647
119.23579020094647
119.23579020094647
119.23579020094647
119.23579020094647
119.23579020094647
115.42782367955668
115.40757772844591
115.38743593238775
115.36739724016539
115.34746080698396
115.32762596375169
115.30789219910292
115.28825914843065
115.26872658718983
140.8351262527288
140.7115179628675
140.5884257008404
140.46584884186376
140.34378624603042
140.22223621578513
140.1011964361262
139.98066389960348
139.86063482131902
139.7411045555872
139.62206753923755
139.50351730975316
139.3854466539314
139.26784785405624
139.1514007758815
139.03503006922094
138.91873506182264
138.8025150865691
138.6863694902838
138.57029764893807
138.4542989932783
138.33837305370284
119.23579020094647
119.23579020094647
119.23579020094647
119.23579020094647
119.23579020094647
119.23579020094647
119.23579020094647
119.23579020094647
119.23579020094647
119.23579020094647
115.42782564781078
115.40788190440172
115.38799893429677
115.36817706240285
115.3484165483236
115.32871759487293
115.30908035311454
115.2895049254694
115.26999136762906
140.96287021530975
140.8392603164049
140.71611085476044
140.593422035998
140.47119414961472
140.3494275844172
140.2281228504619
140.10728060720467
139.98690169678775
139.86698717970583
139.74753836651232
139.62855683288902
139.51004440313343
139.39200311059773
139.27512041203812
139.1583157744144
139.0415893978663
138.92494148249045
138.80837222619476
138.69188182082564
138.5754704454819
138.45913825462978
119.23579020094647
119.23579020094647
119.23579020094647
119.23579020094647
119.23579020094647
119.23579020094647
119.23579020094647
119.23579020094647
119.23579020094647
119.23579020094647
115.42785330011827
115.40783034868693
115.38787973670657
115.36800134272865
115.34819506550843
115.3284608216204
115.30879854402825
115.28920818119232
115.26968969651499
141.0253930794201
140.9017835411668
140.77860933225105
140.65587046651785
140.53356690368622
140.4116985438382
140.29026521950664
140.1692666853388
140.04870260550334
139.9285725394622
139.8088759277364
139.68961208111733
139.57078017748432
139.45237926378616
139.33511679725356
139.21792849275406
139.10081425885636
138.98377400326927
138.86680763336452
138.74991505719402
138.63309618531247
138.51635093408936
119.23579020094647
119.23579020094647
119.23579020094647
119.23579020094647
119.23579020094647
119.23579020094647
119.23579020094647
119.23579020094647
119.23579020094647
119.23579020094647
115.4278394094688
115.40783760622277
115.38790499966103
115.36804161145378
115.34824745661267
115.32852254420632
115.30886687779598
115.2892804557112
115.26976327122296
141.04406536543047
140.92045550671034
140.7972726609977
140.6745169031902
140.55218830152046
140.4302869207357
140.30881282669847
140.18776609246646
140.06714680583227
139.94695507808922
139.8271910532961
139.70785491640262
139.58894689822432
139.470467278522
139.35312583717447
139.2358585887988
139.11866557067924
139.00154682051624
138.8845023762065
138.76753227537702
138.65063655451482
138.53381524735167
119.23579020094647
119.23579020094647
119.23579020094647
119.23579020094647
119.23579020094647
119.23579020094647
119.23579020094647
119.23579020094647
119.23579020094647
119.23579020094647
115.42784573429996
115.40783702567118
115.38789855960637
115.36803030240468
115.34823222394738
115.3285042973255
115.30884649861015
115.28925880670614
115.26974120325904
141.02539307941979
140.90178354116645
140.77860933225062
140.6558704665173
140.53356690368543
140.41169854383705
140.29026521950522
140.1692666853372
140.04870260550152
139.92857253946005
139.80887592773385
139.68961208111432
139.57078017748086
139.45237926378223
139.33511679724916
139.2179284927492
139.10081425885116
138.9837740032637
138.86680763335866
138.74991505718796
138.63309618530633
138.51635093408314
119.23579020094647
119.23579020094647
119.23579020094647
119.23579020094647
119.23579020094647
119.23579020094647
119.23579020094647
119.23579020094647
119.23579020094647
119.23579020094647
115.42783940945766
115.40783760621161
115.38790499964986
115.36804161144258
115.34824745660143
115.32852254419501
115.30886687778462
115.28928045569984
115.26976327121162
140.96287021531606
140.83926031641124
140.7161108547668
140.59342203600443
140.4711941496213
140.34942758442395
140.22812285046868
140.1072806072114
139.98690169679443
139.86698717971257
139.7475383665192
139.6285568328961
139.51004440314065
139.39200311060526
139.27512041204594
139.15831577442245
139.04158939787456
138.92494148249904
138.8083722262035
138.69188182083442
138.57547044549065
138.45913825463848
119.23579020094647
119.23579020094647
119.23579020094647
119.23579020094647
119.23579020094647
119.23579020094647
119.23579020094647
119.23579020094647
119.23579020094647
119.23579020094647
115.42785330008338
115.40783034865187
115.38787973667134
115.36800134269322
115.34819506547281
115.32846082158466
115.3087985439924
115.2892081811564
115.26968969647906
140.83512625273903
140.7115179628778
140.58842570085082
140.46584884187428
140.34378624604085
140.22223621579536
140.10119643613638
139.98066389961357
139.86063482132897
139.7411045555969
139.6220675392468
139.50351730976197
139.38544665393974
139.26784785406403
139.15140077588887
139.035030069228
138.91873506182944
138.80251508657565
138.68636949029022
138.57029764894435
138.45429899328454
138.33837305370903
119.23579020094647
119.23579020094647
119.23579020094647
119.23579020094647
119.23579020094647
119.23579020094647
119.23579020094647
119.23579020094647
119.23579020094647
119.23579020094647
115.42782564780802
115.40788190439898
115.38799893429406
115.36817706240019
115.348416548321
115.32871759487044
115.30908035311208
115.28950492546693
115.26999136762657
140.5965044069665
140.4728983413121
140.34991208209908
140.22754800247887
140.10581004042186
139.98470380280182
139.86423670966965
139.7444181685418
139.62525975626718
139.50677536171867
139.38898119324745
139.27189546999543
139.15553759224457
139.03992692288412
138.92561146713027
138.81139967308934
138.69729298710243
138.5832928141469
138.46940048286535
138.35561718679193
138.24194388684657
138.12838114227188
119.23579020094647
119.23579020094647
119.23579020094647
119.23579020094647
119.23579020094647
119.23579020094647
119.23579020094647
119.23579020094647
119.23579020094647
119.23579020094647
115.42782367955142
115.40757772844063
115.38743593238242
115.36739724016005
115.34746080697859
115.32762596374626
115.30789219909748
115.28825914842524
115.26872658718445
140.17253172579944
140.0488911473401
139.92597260174168
139.80376799771037
139.68226362292592
139.56143994653144
139.44127135346184
139.3217258539006
139.2027648577415
139.08434319426632
138.96640973825157
138.84890931225516
138.73178660750335
138.61499158484784
138.49925117143533
138.38356994686671
138.26794521383385
138.15237448544386
138.03685562012214
137.92138704498052
137.80596812310813
137.690599786857
119.23579020094647
119.23579020094647
119.23579020094647
119.23579020094647
119.23579020094647
119.23579020094647
119.23579020094647
119.23579020094647
119.23579020094647
119.23579020094647
115.42801942658328
115.40893023678866
115.38978197089625
115.37057761630433
115.3513195297022
115.33200954863341
115.31264905617255
115.2932390200306
115.27378001626283
139.3736203365734
139.25028190694024
139.12860887054936
139.00862252795037
138.89035825074154
138.77386565066607
138.65920876791998
138.54646610935163
138.43573019404585
138.32710593221364
138.22070650310576
138.11664428046112
138.01501414819367
137.91587141999102
137.81883376806027
137.72203936115096
137.62548448635548
137.52916448093708
137.43307322666496
137.3372023155828
137.24153968120885
137.1460672412053
119.23579020094647
119.23579020094647
119.23579020094647
119.23579020094647
119.23579020094647
119.23579020094647
119.23579020094647
119.23579020094647
119.23579020094647
119.23579020094647
115.39811420440012
115.37445659368659
115.35137350715513
115.32885714409885
115.30690151501966
115.2855020336181
115.26465528186833
115.24435886891105
115.22461134596078
138.14731878307936
138.0220087728444
137.89491064125235
137.76599941728048
137.63523411136808
137.50255820663673
137.36790052637213
137.2311771087166
137.09229535443706
136.95116292136598
136.80770623726323
136.66190753692695
136.51386984897732
136.36390084348753
136.21423537116286
136.0645520219069
135.91491474007734
135.76539130118766
135.6160551512096
135.46698846570237
135.31828719399732
135.17006977665898
119.23579020094647
119.23579020094647
119.23579020094647
119.23579020094647
119.23579020094647
119.23579020094647
119.23579020094647
119.23579020094647
119.23579020094647
119.23579020094647
113.06960947810127
113.05286251114323
113.03577011596906
113.01835400889186
113.00063027037214
112.98261084560323
112.96430440456992
112.94571685638067
112.92685165835212
138.13875091507512
138.01343450236843
137.886320073401
137.7573810887425
137.6265742919474
137.4938397048523
137.35910008806746
137.22226007482237
137.08320498985614
136.9417993207868
136.79788451144293
136.65128498437542
136.50188387722412
136.34982513499872
136.19767137861845
136.04542110478548
135.89311230332626
135.74076520090696
135.58837327446332
135.43588936034035
135.28319359488853
135.1300129586556
134.9752572980585
115.38178650225517
115.33784811710608
115.33180033846259
115.33393537803708
115.33324249668591
115.33336382185631
115.33409061148615
115.32277028261429
113.06908864689059
113.05155993195615
113.03411040579248
113.0165185365694
112.99873848935171
112.98074901949748
112.96254036782454
112.94410785700254
112.92544926338024
112.90656361949863
138.130363387343
138.0050413587997
137.87791286469763
137.7489497342226
137.61810644860137
137.485319617386
137.35050600990544
137.21355895315725
137.07434182115182
136.93267609573869
136.78831854949937
136.6409317385429
136.490157936765
136.33596221554077
136.18126977619377
136.02641187804673
135.87140869796247
135.71624082265592
135.56083266936844
135.40503058964498
135.2485613213604
135.09091648358134
134.93129660721868
115.3903125172766
115.31043435100469
115.31377282815866
115.3134180144737
115.31344942643803
115.31312166478256
115.31495572053132
115.29950961158357
113.05188587239081
113.03365353383538
113.01558338411378
112.997530450589