# vtk DataFile Version 2.0
Niestacjonarne zagadnienie cieplne - ogrzewanie wody w garnku stalowym
ASCII
DATASET UNSTRUCTURED_GRID
POINTS 1353 float
0.0 0.0 0.0
0.0 3.846153846153846E-4 0.0
0.0 7.692307692307692E-4 0.0
0.0 0.0011538461538461537 0.0
0.0 0.0015384615384615385 0.0
0.0 0.0019230769230769232 0.0
0.0 0.0023076923076923075 0.0
0.0 0.002692307692307692 0.0
0.0 0.003076923076923077 0.0
0.0 0.0034615384615384616 0.0
0.0 0.0038461538461538464 0.0
0.0 0.004230769230769231 0.0
0.0 0.004615384615384615 0.0
0.0 0.005 0.0
0.0 0.005111111111111111 0.0
0.0 0.005222222222222223 0.0
0.0 0.005333333333333333 0.0
0.0 0.0054444444444444445 0.0
0.0 0.005555555555555556 0.0
0.0 0.005666666666666667 0.0
0.0 0.0057777777777777775 0.0
0.0 0.005888888888888889 0.0
0.0 0.006 0.0
0.0 0.01711111111111111 0.0
0.0 0.028222222222222225 0.0
0.0 0.03933333333333333 0.0
0.0 0.050444444444444445 0.0
0.0 0.06155555555555556 0.0
0.0 0.07266666666666667 0.0
0.0 0.08377777777777778 0.0
0.0 0.0948888888888889 0.0
0.0 0.10600000000000001 0.0
0.0 0.10611111111111113 0.0
0.0 0.10622222222222223 0.0
0.0 0.10633333333333335 0.0
0.0 0.10644444444444445 0.0
0.0 0.10655555555555557 0.0
0.0 0.10666666666666667 0.0
0.0 0.10677777777777779 0.0
0.0 0.1068888888888889 0.0
0.0 0.10700000000000001 0.0
1.1111111111111112E-4 0.0 0.0
1.1111111111111112E-4 3.846153846153846E-4 0.0
1.1111111111111112E-4 7.692307692307692E-4 0.0
1.1111111111111112E-4 0.0011538461538461537 0.0
1.1111111111111112E-4 0.0015384615384615385 0.0
1.1111111111111112E-4 0.0019230769230769232 0.0
1.1111111111111112E-4 0.0023076923076923075 0.0
1.1111111111111112E-4 0.002692307692307692 0.0
1.1111111111111112E-4 0.003076923076923077 0.0
1.1111111111111112E-4 0.0034615384615384616 0.0
1.1111111111111112E-4 0.0038461538461538464 0.0
1.1111111111111112E-4 0.004230769230769231 0.0
1.1111111111111112E-4 0.004615384615384615 0.0
1.1111111111111112E-4 0.005 0.0
1.1111111111111112E-4 0.005111111111111111 0.0
1.1111111111111112E-4 0.005222222222222223 0.0
1.1111111111111112E-4 0.005333333333333333 0.0
1.1111111111111112E-4 0.0054444444444444445 0.0
1.1111111111111112E-4 0.005555555555555556 0.0
1.1111111111111112E-4 0.005666666666666667 0.0
1.1111111111111112E-4 0.0057777777777777775 0.0
1.1111111111111112E-4 0.005888888888888889 0.0
1.1111111111111112E-4 0.006 0.0
1.1111111111111112E-4 0.01711111111111111 0.0
1.1111111111111112E-4 0.028222222222222225 0.0
1.1111111111111112E-4 0.03933333333333333 0.0
1.1111111111111112E-4 0.050444444444444445 0.0
1.1111111111111112E-4 0.06155555555555556 0.0
1.1111111111111112E-4 0.07266666666666667 0.0
1.1111111111111112E-4 0.08377777777777778 0.0
1.1111111111111112E-4 0.0948888888888889 0.0
1.1111111111111112E-4 0.10600000000000001 0.0
1.1111111111111112E-4 0.10611111111111113 0.0
1.1111111111111112E-4 0.10622222222222223 0.0
1.1111111111111112E-4 0.10633333333333335 0.0
1.1111111111111112E-4 0.10644444444444445 0.0
1.1111111111111112E-4 0.10655555555555557 0.0
1.1111111111111112E-4 0.10666666666666667 0.0
1.1111111111111112E-4 0.10677777777777779 0.0
1.1111111111111112E-4 0.1068888888888889 0.0
1.1111111111111112E-4 0.10700000000000001 0.0
2.2222222222222223E-4 0.0 0.0
2.2222222222222223E-4 3.846153846153846E-4 0.0
2.2222222222222223E-4 7.692307692307692E-4 0.0
2.2222222222222223E-4 0.0011538461538461537 0.0
2.2222222222222223E-4 0.0015384615384615385 0.0
2.2222222222222223E-4 0.0019230769230769232 0.0
2.2222222222222223E-4 0.0023076923076923075 0.0
2.2222222222222223E-4 0.002692307692307692 0.0
2.2222222222222223E-4 0.003076923076923077 0.0
2.2222222222222223E-4 0.0034615384615384616 0.0
2.2222222222222223E-4 0.0038461538461538464 0.0
2.2222222222222223E-4 0.004230769230769231 0.0
2.2222222222222223E-4 0.004615384615384615 0.0
2.2222222222222223E-4 0.005 0.0
2.2222222222222223E-4 0.005111111111111111 0.0
2.2222222222222223E-4 0.005222222222222223 0.0
2.2222222222222223E-4 0.005333333333333333 0.0
2.2222222222222223E-4 0.0054444444444444445 0.0
2.2222222222222223E-4 0.005555555555555556 0.0
2.2222222222222223E-4 0.005666666666666667 0.0
2.2222222222222223E-4 0.0057777777777777775 0.0
2.2222222222222223E-4 0.005888888888888889 0.0
2.2222222222222223E-4 0.006 0.0
2.2222222222222223E-4 0.01711111111111111 0.0
2.2222222222222223E-4 0.028222222222222225 0.0
2.2222222222222223E-4 0.03933333333333333 0.0
2.2222222222222223E-4 0.050444444444444445 0.0
2.2222222222222223E-4 0.06155555555555556 0.0
2.2222222222222223E-4 0.07266666666666667 0.0
2.2222222222222223E-4 0.08377777777777778 0.0
2.2222222222222223E-4 0.0948888888888889 0.0
2.2222222222222223E-4 0.10600000000000001 0.0
2.2222222222222223E-4 0.10611111111111113 0.0
2.2222222222222223E-4 0.10622222222222223 0.0
2.2222222222222223E-4 0.10633333333333335 0.0
2.2222222222222223E-4 0.10644444444444445 0.0
2.2222222222222223E-4 0.10655555555555557 0.0
2.2222222222222223E-4 0.10666666666666667 0.0
2.2222222222222223E-4 0.10677777777777779 0.0
2.2222222222222223E-4 0.1068888888888889 0.0
2.2222222222222223E-4 0.10700000000000001 0.0
3.333333333333334E-4 0.0 0.0
3.333333333333334E-4 3.846153846153846E-4 0.0
3.333333333333334E-4 7.692307692307692E-4 0.0
3.333333333333334E-4 0.0011538461538461537 0.0
3.333333333333334E-4 0.0015384615384615385 0.0
3.333333333333334E-4 0.0019230769230769232 0.0
3.333333333333334E-4 0.0023076923076923075 0.0
3.333333333333334E-4 0.002692307692307692 0.0
3.333333333333334E-4 0.003076923076923077 0.0
3.333333333333334E-4 0.0034615384615384616 0.0
3.333333333333334E-4 0.0038461538461538464 0.0
3.333333333333334E-4 0.004230769230769231 0.0
3.333333333333334E-4 0.004615384615384615 0.0
3.333333333333334E-4 0.005 0.0
3.333333333333334E-4 0.005111111111111111 0.0
3.333333333333334E-4 0.005222222222222223 0.0
3.333333333333334E-4 0.005333333333333333 0.0
3.333333333333334E-4 0.0054444444444444445 0.0
3.333333333333334E-4 0.005555555555555556 0.0
3.333333333333334E-4 0.005666666666666667 0.0
3.333333333333334E-4 0.0057777777777777775 0.0
3.333333333333334E-4 0.005888888888888889 0.0
3.333333333333334E-4 0.006 0.0
3.333333333333334E-4 0.01711111111111111 0.0
3.333333333333334E-4 0.028222222222222225 0.0
3.333333333333334E-4 0.03933333333333333 0.0
3.333333333333334E-4 0.050444444444444445 0.0
3.333333333333334E-4 0.06155555555555556 0.0
3.333333333333334E-4 0.07266666666666667 0.0
3.333333333333334E-4 0.08377777777777778 0.0
3.333333333333334E-4 0.0948888888888889 0.0
3.333333333333334E-4 0.10600000000000001 0.0
3.333333333333334E-4 0.10611111111111113 0.0
3.333333333333334E-4 0.10622222222222223 0.0
3.333333333333334E-4 0.10633333333333335 0.0
3.333333333333334E-4 0.10644444444444445 0.0
3.333333333333334E-4 0.10655555555555557 0.0
3.333333333333334E-4 0.10666666666666667 0.0
3.333333333333334E-4 0.10677777777777779 0.0
3.333333333333334E-4 0.1068888888888889 0.0
3.333333333333334E-4 0.10700000000000001 0.0
4.4444444444444447E-4 0.0 0.0
4.4444444444444447E-4 3.846153846153846E-4 0.0
4.4444444444444447E-4 7.692307692307692E-4 0.0
4.4444444444444447E-4 0.0011538461538461537 0.0
4.4444444444444447E-4 0.0015384615384615385 0.0
4.4444444444444447E-4 0.0019230769230769232 0.0
4.4444444444444447E-4 0.0023076923076923075 0.0
4.4444444444444447E-4 0.002692307692307692 0.0
4.4444444444444447E-4 0.003076923076923077 0.0
4.4444444444444447E-4 0.0034615384615384616 0.0
4.4444444444444447E-4 0.0038461538461538464 0.0
4.4444444444444447E-4 0.004230769230769231 0.0
4.4444444444444447E-4 0.004615384615384615 0.0
4.4444444444444447E-4 0.005 0.0
4.4444444444444447E-4 0.005111111111111111 0.0
4.4444444444444447E-4 0.005222222222222223 0.0
4.4444444444444447E-4 0.005333333333333333 0.0
4.4444444444444447E-4 0.0054444444444444445 0.0
4.4444444444444447E-4 0.005555555555555556 0.0
4.4444444444444447E-4 0.005666666666666667 0.0
4.4444444444444447E-4 0.0057777777777777775 0.0
4.4444444444444447E-4 0.005888888888888889 0.0
4.4444444444444447E-4 0.006 0.0
4.4444444444444447E-4 0.01711111111111111 0.0
4.4444444444444447E-4 0.028222222222222225 0.0
4.4444444444444447E-4 0.03933333333333333 0.0
4.4444444444444447E-4 0.050444444444444445 0.0
4.4444444444444447E-4 0.06155555555555556 0.0
4.4444444444444447E-4 0.07266666666666667 0.0
4.4444444444444447E-4 0.08377777777777778 0.0
4.4444444444444447E-4 0.0948888888888889 0.0
4.4444444444444447E-4 0.10600000000000001 0.0
4.4444444444444447E-4 0.10611111111111113 0.0
4.4444444444444447E-4 0.10622222222222223 0.0
4.4444444444444447E-4 0.10633333333333335 0.0
4.4444444444444447E-4 0.10644444444444445 0.0
4.4444444444444447E-4 0.10655555555555557 0.0
4.4444444444444447E-4 0.10666666666666667 0.0
4.4444444444444447E-4 0.10677777777777779 0.0
4.4444444444444447E-4 0.1068888888888889 0.0
4.4444444444444447E-4 0.10700000000000001 0.0
5.555555555555556E-4 0.0 0.0
5.555555555555556E-4 3.846153846153846E-4 0.0
5.555555555555556E-4 7.692307692307692E-4 0.0
5.555555555555556E-4 0.0011538461538461537 0.0
5.555555555555556E-4 0.0015384615384615385 0.0
5.555555555555556E-4 0.0019230769230769232 0.0
5.555555555555556E-4 0.0023076923076923075 0.0
5.555555555555556E-4 0.002692307692307692 0.0
5.555555555555556E-4 0.003076923076923077 0.0
5.555555555555556E-4 0.0034615384615384616 0.0
5.555555555555556E-4 0.0038461538461538464 0.0
5.555555555555556E-4 0.004230769230769231 0.0
5.555555555555556E-4 0.004615384615384615 0.0
5.555555555555556E-4 0.005 0.0
5.555555555555556E-4 0.005111111111111111 0.0
5.555555555555556E-4 0.005222222222222223 0.0
5.555555555555556E-4 0.005333333333333333 0.0
5.555555555555556E-4 0.0054444444444444445 0.0
5.555555555555556E-4 0.005555555555555556 0.0
5.555555555555556E-4 0.005666666666666667 0.0
5.555555555555556E-4 0.0057777777777777775 0.0
5.555555555555556E-4 0.005888888888888889 0.0
5.555555555555556E-4 0.006 0.0
5.555555555555556E-4 0.01711111111111111 0.0
5.555555555555556E-4 0.028222222222222225 0.0
5.555555555555556E-4 0.03933333333333333 0.0
5.555555555555556E-4 0.050444444444444445 0.0
5.555555555555556E-4 0.06155555555555556 0.0
[...]
POINT_DATA 1353
SCALARS Temperatura float 1
LOOKUP_TABLE default
139.661946968086
139.53693755695667
139.41008832795893
139.28135601227234
139.15068494472249
139.01799740797725
138.88318525512213
138.74609448339936
138.60649799389333
138.4640329514081
138.318118007992
138.167576481543
138.01077271264262
137.838640809309
137.65248227530958
137.4786606211682
137.30814493442176
137.13930054081698
136.97105156941723
136.80262987973316
136.6333929431747
136.46276239931765
136.29019672132807
116.94724021054911
116.75191767556157
116.78526296520003
116.77699232750452
116.77931808048591
116.77754822114342
116.78300700615576
116.75380905432168
114.49135894813931
114.47125672448075
114.45139374799194
114.4317209413647
114.41219216245157
114.39276616932982
114.37340804604801
114.35409010787497
114.33479239211958
114.3155028751374
139.6691597840549
139.5441451790344
139.41728994346641
139.28855227088673
139.15787660297337
139.02518559442456
138.89037158508273
138.75328200633388
138.61369044124598
138.47124460451477
138.32534414654083
138.17495592498474
138.01792357178465
137.8484898613621
137.67386230158795
137.50120895756032
137.3314327844804
137.16302779624792
136.99511001477646
136.82696664146698
136.65798060051534
136.48758450165448
136.3152410391294
116.96523655143008
116.77221785868777
116.80496446669888
116.79685107621476
116.79913148330657
116.7973899894634
116.80277742280687
116.77384716292592
114.5105711195716
114.49049003918445
114.47064794768767
114.45099451712002
114.43148259586566
114.41207022636539
114.3927220539473
114.37341016899433
114.35411451922457
114.33482305771145
139.6765538468806
139.55153725686432
139.4246792937254
139.29594080901504
139.16526689122725
139.0325811746857
138.89777773772838
138.76070715448864
138.6211497685278
138.47876467298073
138.33297998172924
138.18282271533235
138.02618240111966
137.85983439096114
137.69036000617234
137.52142558420718
137.35350723336245
137.18639068090846
137.0194886814298
136.8522283976313
136.68405511660026
136.5144289999423
136.34282227381343
116.979570057296
116.79354873892063
116.82448342880227
116.81684593462906
116.81898907755915
116.81733356660757
116.8225044420837
116.7943898532578
114.52955976313572
114.50955176112127
114.48978174034565
114.47019550745304
114.45074285023811
114.4313797081223
114.41206949962518
114.39278373912728
114.37350218705363
114.35421277790712
139.6841301555289
139.5591136500557
139.4322562299631
139.30352141844585
139.1728555210061
139.04018375094563
138.90540297885835
138.76836904060934
138.6288728418794
138.4865928653808
138.34100425780338
138.19119911731255
138.0354172504249
137.8718740345182
137.70607493724611
137.5403141025408
137.37484846360698
137.209613605633
137.04430097441147
136.87847544793462
136.7116538143808
136.54332664422097
136.37297212988156
116.99022858596702
116.81591511168091
116.84381818383582
116.83697748835891
116.83889064057266
116.83737920747049
116.8421875326243
116.81543846018567
114.54832157813473
114.52844306697003
114.50880031327782
114.48933220802314
114.46998328417764
114.45070611111264
114.43146235928504
114.41222290498122
114.39296745406155
114.3736840676739
139.69188915836762
139.566874253096
139.44002047560832
139.31129374691835
139.1806420164298
139.0479926306155
138.91324621570374
138.77626577261887
138.63685611577048
138.49472332392293
138.349399213798
138.20008171695585
138.0454239637248
137.88443494557035
137.7217159476565
137.5588446313632
137.3959401586402
137.23295585274212
137.06968094109465
136.90577833151596
136.74082147410425
136.57432025623726
136.40574324849118
116.99719234828942
116.83932484738773
116.86296597043986
116.85724669756638
116.85883579327167
116.85752732717138
116.86182580084059
116.83699518932828
114.56685091374291
114.54716653687541
114.52771344824077
114.5084197153471
114.48922224258054
114.47006932749146
114.45092097383699
114.43174792589461
114.41253037620916
114.39325688804945
139.69983096289604
139.5748188803902
139.4479716463445
139.31925729806264
139.18862571652562
139.05600686124285
138.92130595590518
138.78439474829995
138.6450950262427
138.5031467808486
138.35814799393532
138.20943629472453
138.0560463144404
137.89744311866448
137.7375347967069
137.5774111828588
137.41712163054066
137.25661597041122
137.0957292511459
136.9341822728269
136.7715866596669
136.60745255616894
136.44120972071602
117.00043375265064
116.86378893999937
116.88192291789468
116.87765490250372
116.87882399673279
116.87777850800765
116.88141796781507
116.85906319985457
114.58513946753489
114.56572738138921
114.54653768404852
114.52748219782369
114.5084878221717
114.48949871189745
114.47047451207634
114.45138729484778
114.43221884824008
114.4129589015581
139.70795543493603
139.5829472262712
139.45610924878014
139.3274114360371
139.19680578443817
139.06422525192997
138.9295803373423
138.79275279175621
138.65358387201562
138.511852109888
138.3672306107212
138.21921507396743
138.0671673830665
137.9108432570204
137.75361438083766
137.59617510041838
137.4385470113216
137.28068733567756
137.12246978657114
136.9636677290513
136.80392822740654
136.64274665605544
136.47946844156854
116.99991701698228
116.88932162059564
116.9006840119219
116.89820383465761
116.89885454606562
116.89813351098188
116.90096233110816
116.88164674192674
114.60317578352868
114.58413612944855
114.56530068470923
114.54655693569067
114.52782056724459
114.50903435705996
114.49016133067649
114.47117757284445
114.45206817663922
114.43282496688329
139.71626224970106
139.5912588539073
139.46443267612383
139.33575539099598
139.2051812194769
139.07264639596858
138.93806718260004
138.80133623505432
138.66231603115
138.52082681820534
138.37662357597566
138.22936628221743
138.07869521224887
137.92457952516332
137.76995902184282
137.6151732568639
137.4602437419187
137.3051520984997
137.14982342924446
136.99410444820674
136.83772200877564
136.68016774953745
136.52064215586623
116.99559731976966
116.91594059736022
116.91924302543912
116.91889563811705
116.9189265597087
116.91859329490299
116.92045670142673
116.90475138583335
114.62094441211778
114.60241516656511
114.58405009087348
114.56570148797906
114.54727650786903
114.52872803559171
114.5100288477605
114.49116275248261
114.47212021912613
114.45289621573723
139.72475092104554
139.59975319531645
139.47294120565206
139.34428826484282
139.2137508706231
139.08126869825946
138.94676405700284
138.8101410181606
138.67128422583053
138.53005735779394
138.386300902733
138.2398382856373
138.09055267795387
137.93859198182116
137.7865292373373
137.6343696699595
137.4821521352265
137.32989758080365
137.17760003045538
137.02521269813002
136.87261596014199
136.71953689696167
136.56488595645322
116.98741901738633
116.94366754891128
116.93759238007254
116.93973291072535
116.93903896017021
116.93915904933992
116.93989829308074
116.92838442059939
114.63842444268325
114.62061213046137
114.60287933157788
114.58500049552285
114.56692888729864
114.54864285519334
114.53013245150828
114.51139290736089
114.49242195480468
114.47321860678875
139.73342082043422
139.60842955558624
139.48163399850316
139.3530090372742
139.22251345119554
139.09009040573144
138.95566832911416
138.81916280764744
138.68048077786733
138.5395295135736
138.3962353277234
138.25058098025778
138.10267127255796
137.95281746085806
137.80326109819615
137.6536861403491
137.5041569959572
137.35474187720888
137.20551462956445
137.05655778576423
136.90796760908222
136.75986281360306
120.89086329121122
120.89086329121122
120.89086329121122
120.89086329121122
120.89086329121122
120.89086329121122
120.89086329121122
120.89086329121122
120.89086329121122
120.89086329121122
114.63895359267518
114.621936643923
114.60456671843968
114.58686593314587
114.56885066408911
114.55053307559987
114.53192199651238
114.51302344414579
114.4938409391815
140.9710476922818
140.84804060144552
140.7267033436508
140.6070573469467
140.48913819563336
140.37299580014385
140.25869458540842
140.14631352672384
140.0359456872726
139.92769657652642
139.8216799819978
139.7180087993172
139.61677818719787
139.51804333368577
139.42141453999963
139.3250290384614
139.22888307096395
139.13297193724176
139.03728949168647
138.941827310414
138.84657332265144
138.75150945260316
120.89086329121122
120.89086329121122
120.89086329121122
120.89086329121122
120.89086329121122
120.89086329121122
120.89086329121122
120.89086329121122
120.89086329121122
120.89086329121122
117.00492669201789
116.9808903384906
116.95743556517587
116.93455443324157
116.91224084798404
116.89049014305598
116.86929884113118
116.84866451015353
116.82858567665171
141.7770693743192
141.65375824348735
141.53116681289103
141.40928693952102
141.2881048243498
141.16760081368056
141.0477491321458
140.92851759108146
140.80986736304794
140.6917530045198
140.57412309157198
140.45692214477975
140.34009459040894
140.22359020039278
140.10813547820868
139.99273898411377
139.87739800999182
139.76211005586615
139.6468729641372
139.53168514259832
139.41654593166916
139.3014562378852
120.89086329121122
120.89086329121122
120.89086329121122
120.89086329121122
120.89086329121122
120.89086329121122
120.89086329121122
120.89086329121122
120.89086329121122
120.89086329121122
117.03532449992855
117.01592951391717
116.99647235515333
116.97695606290668
116.95738303459315
116.93775513945691
116.9180737844585
116.898339954111
116.87855423463017
142.20488345582933
142.08160703902888
141.9589469367256
141.8369055346578
141.7154867926831
141.594696349482
141.4745416676355
141.3550322087919
141.2361796162563
141.11799785776552
141.0005032314119
140.8837140520475
140.76764981202345
140.65232995330487
140.5383013508763
140.4243756205816
140.31055421503157
140.1968385461572
140.08322995042298
139.96972963015523
139.85633855605977
139.74305729811292
120.89086329121122
120.89086329121122
120.89086329121122
120.89086329121122
120.89086329121122
120.89086329121122
120.89086329121122
120.89086329121122
120.89086329121122
120.89086329121122
117.03512598518178
117.0145557855633
116.99408925766438
116.97372533291589
116.95346315275665
116.9333020373331
116.9132414671868
116.89328107208274
116.87342062418864
142.44566467695574
142.32238602345888
142.19961898497127
142.0773629311544
141.95561671327587
141.83437862143046
141.7136463243977
141.59341679423346
141.47368622085818
141.35444992842523
141.23570231871147
141.11743689020082
140.99964638891763
140.88232305669922
140.76614656053482
140.65004547166325
140.53401911394653
140.4180668161655
140.30218792077386
140.18638179907433
140.07064787683598
139.9549856791793
120.89086329121122
120.89086329121122
120.89086329121122
120.89086329121122
120.89086329121122
120.89086329121122
120.89086329121122
120.89086329121122
120.89086329121122
120.89086329121122
117.0351279860332
117.01486481535352
116.99466124002379
116.97451759083434
116.95443413215331
116.93441107060083
116.91444856018208
116.89454670545229
116.87470556346527
142.57457077619318
142.4512905016306
142.32846575019533
142.2060967270443
142.08418372163726
141.9627271232634
141.84172744310956
141.7211853425679
141.60110166669617
141.48147748004195
141.36231409842225
141.2436131038541
141.12537632758705
141.00760581011633
140.89098895149016
140.77444918159108
140.65798670123854
140.54160171127387
140.42529441042987
140.3090649914678
140.1929136344954
140.07684049508111
120.89086329121122
120.89086329121122
120.89086329121122
120.89086329121122
120.89086329121122
120.89086329121122
120.89086329121122
120.89086329121122
120.89086329121122
120.89086329121122
117.03515608248007
117.01481244011676
116.99454014444997
116.97433907245042
116.9542091216375
116.93415020765002
116.9141622627897
116.89424523511222
116.87439908786251
142.63766362530936
142.51438371322598
142.39153398473945
142.26911445211564
142.14712507312635
142.0255657455055
141.9044362989905
141.78373648492737
141.66346596360987
141.54362428998272
141.42421089935647
141.30522509662177
141.1866660531538
141.06853280886702
140.95153292597152
140.83460620396363
140.71775255061334
140.60097187280772
140.48426407706913
140.36762907056902
140.25106676294888
140.1345770696318
120.89086329121122
120.89086329121122
120.89086329121122
120.89086329121122
120.89086329121122
120.89086329121122
120.89086329121122
120.89086329121122
120.89086329121122
120.89086329121122
117.03514197087448
117.01481981409613
116.99456581092403
116.97437998382426
116.95426234849351
116.93421291458777
116.91423168616612
116.89431866197135
116.8744738356063
142.65650644717778
142.53322621244345
142.41036777044738
142.2879311948801
142.1659165526918
142.04432390729133
141.9231533231736
141.80240487203463
141.68207864035256
141.56217473819794
141.44269330853666
141.32363453536988
141.20499864868458
141.08678592751832
140.96970628466815
140.85269983131704
140.7357666046431
140.6189066422525
140.50211998196244
140.38540666133656
140.26876671681637
140.15220018210596
120.89086329121122
120.89086329121122
120.89086329121122
120.89086329121122
120.89086329121122
120.89086329121122
120.89086329121122
120.89086329121122
120.89086329121122
120.89086329121122
117.03514839687121
117.01481922453878
116.99455926843953
116.97436849475409
116.95424687330677
116.93419437718633
116.9142109825121
116.89429666828488
116.87445141629239
142.63766362530896
142.51438371322553
142.3915339847389
142.26911445211502
142.14712507312552
142.0255657455043
141.90443629898905
141.78373648492578
141.6634659636081
141.5436242899806
141.42421089935394
141.30522509661878
141.18666605315033
141.0685328088631
140.95153292596714
140.8346062039588
140.71775255060814
140.60097187280215
140.48426407706322
140.3676290705629
140.25106676294266
140.13457706962546
120.89086329121122
120.89086329121122
120.89086329121122
120.89086329121122
120.89086329121122
120.89086329121122
120.89086329121122
120.89086329121122
120.89086329121122
120.89086329121122
117.03514197086291
117.01481981408455
116.99456581091245
116.97437998381267
116.95426234848186
116.93421291457604
116.91423168615434
116.89431866195956
116.87447383559451
142.5745707761997
142.4512905016371
142.32846575020184
142.2060967270509
142.084183721644
141.9627271232703
141.8417274431165
141.72118534257476
141.60110166670296
141.4814774800488
141.36231409842927
141.2436131038613
141.1253763275944
141.00760581012398
140.89098895149806
140.77444918159918
140.65798670124687
140.54160171128248
140.42529441043862
140.30906499147662
140.1929136345042
140.0768404950899
120.89086329121122
120.89086329121122
120.89086329121122
120.89086329121122
120.89086329121122
120.89086329121122
120.89086329121122
120.89086329121122
120.89086329121122
120.89086329121122
117.03515608244474
117.01481244008126
116.9945401444143
116.97433907241455
116.95420912160144
116.93415020761381
116.91416226275338
116.89424523507584
116.87439908782612
142.44566467696606
142.32238602346922
142.19961898498173
142.07736293116488
141.95561671328633
141.83437862144072
141.71364632440793
141.59341679424367
141.4736862208683
141.35444992843506
141.23570231872085
141.1174368902097
140.99964638892598
140.88232305670704
140.76614656054218
140.65004547167027
140.5340191139533
140.41806681617206
140.30218792078028
140.1863817990806
140.0706478768422
139.95498567918546
120.89086329121122
120.89086329121122
120.89086329121122
120.89086329121122
120.89086329121122
120.89086329121122
120.89086329121122
120.89086329121122
120.89086329121122
120.89086329121122
117.0351279860305
117.01486481535083
116.99466124002113
116.97451759083174
116.95443413215078
116.93441107059843
116.91444856017972
116.8945467054499
116.8747055634629
142.20488345585335
142.08160703905287
141.9589469367495
141.8369055346816
141.71548679270686
141.59469634950574
141.4745416676591
141.35503220881543
141.23617961627983
141.11799785778913
141.00050323143563
140.8837140520713
140.76764981204727
140.6523299533287
140.5383013509001
140.42437562060536
140.3105542150552
140.19683854618054
140.0832299504462
139.96972963017828
139.85633855608253
139.74305729813545
120.89086329121122
120.89086329121122
120.89086329121122
120.89086329121122
120.89086329121122
120.89086329121122
120.89086329121122
120.89086329121122
120.89086329121122
120.89086329121122
117.03512598517624
117.0145557855577
116.99408925765874
116.97372533291022
116.95346315275096
116.93330203732737
116.91324146718104
116.89328107207702
116.87342062418294
141.77706937434914
141.65375824351733
141.53116681292116
141.4092869395513
141.28810482438024
141.16760081371115
141.04774913217656
140.92851759111235
140.80986736307895
140.6917530045509
140.57412309160318
140.45692214481113
140.34009459044057
140.2235902004247
140.108135478241
139.9927389841464
139.87739801002473
139.7621100558994
139.64687296417068
139.531685142632
139.41654593170296
139.30145623791898
120.89086329121122
120.89086329121122
120.89086329121122
120.89086329121122
120.89086329121122
120.89086329121122
120.89086329121122
120.89086329121122
120.89086329121122
120.89086329121122
117.03532449990551
117.015929513894
116.99647235513004
116.97695606288327
116.9573830345697
116.93775513943345
116.91807378443507
116.89833995408765
116.87855423460684
140.97104769228937
140.8480406014531
140.7267033436584
140.60705734695435
140.489138195641
140.37299580015144
140.25869458541587
140.14631352673118
140.03594568727988
139.92769657653366
139.82167998200507
139.7180087993245
139.61677818720514
139.518043333693
139.42141454000677
139.32502903846847
139.22888307097094
139.13297193724856
139.03728949169326
138.94182731042068
138.84657332265792
138.75150945260953
120.89086329121122
120.89086329121122
120.89086329121122
120.89086329121122
120.89086329121122
120.89086329121122
120.89086329121122
120.89086329121122
120.89086329121122
120.89086329121122
117.0049266920199
116.9808903384926
116.95743556517785
116.93455443324355
116.91224084798594
116.89049014305778
116.86929884113286
116.8486645101551
116.82858567665326
139.73342082043476
139.60842955558678
139.48163399850372
139.35300903727466
139.22251345119594
139.0900904057319
138.9556683291148
138.81916280764824
138.6804807778683
138.53952951357468
138.39623532772455
138.25058098025906
138.10267127255938
137.95281746085954
137.8032610981977
137.6536861403508
137.50415699595905
137.35474187721098
137.2055146295666
137.0565577857665
136.9079676090846
136.7598628136055
120.89086329121122
120.89086329121122
120.89086329121122
120.89086329121122
120.89086329121122
120.89086329121122
120.89086329121122
120.89086329121122
120.89086329121122
120.89086329121122
114.63895359265743
114.6219366439054
114.60456671842222
114.5868659331285
114.56885066407183
114.55053307558268
114.53192199649531
114.51302344412879
114.49384093916449
139.72475092104622
139.59975319531716
139.47294120565255
139.34428826484316
139.2137508706236
139.08126869825995
138.9467640570036
138.81014101816143
138.67128422583156
138.53005735779513
138.3863009027341
138.2398382856388
138.0905526779555
137.93859198182287
137.78652923733904
137.63436966996125
137.4821521352284
137.3298975808057
137.1776000304576
137.0252126981322
136.87261596014423
136.71953689696406
136.56488595645564
116.98741901740026
116.94366754896109
116.9375923800913
116.93973291074262
116.9390389602394
116.93915904935564
116.93989829307799
116.9283844206025
114.63842444266537
114.6206121304435
114.60287933156012
114.58500049550524
114.56692888728115
114.54864285517593
114.53013245149093
114.5113929073436
114.49242195478745
114.47321860677151
139.71626224970188
139.59125885390802
139.46443267612435
139.33575539099633
139.20518121947742
139.07264639596917
138.93806718260075
138.80133623505532
138.6623160311511
138.5208268182066
138.37662357597682
138.22936628221905
138.07869521225064
137.92457952516511
137.76995902184467
137.61517325686575
137.46024374192064
137.30515209850174
137.14982342924657
136.99410444820884
136.8377220087778
136.68016774953972
136.5206421558686
116.99559731978373
116.91594059741014
116.91924302545783
116.9188956381344
116.91892655977806
116.91859329491876
116.9204567014241
116.90475138583625
114.62094441209977
114.60241516654725
114.58405009085558
114.56570148796128
114.54727650785142
114.52872803557413