# vtk DataFile Version 2.0
Niestacjonarne zagadnienie cieplne - ogrzewanie wody w garnku stalowym
ASCII
DATASET UNSTRUCTURED_GRID
POINTS 1353 float
0.0 0.0 0.0
0.0 3.846153846153846E-4 0.0
0.0 7.692307692307692E-4 0.0
0.0 0.0011538461538461537 0.0
0.0 0.0015384615384615385 0.0
0.0 0.0019230769230769232 0.0
0.0 0.0023076923076923075 0.0
0.0 0.002692307692307692 0.0
0.0 0.003076923076923077 0.0
0.0 0.0034615384615384616 0.0
0.0 0.0038461538461538464 0.0
0.0 0.004230769230769231 0.0
0.0 0.004615384615384615 0.0
0.0 0.005 0.0
0.0 0.005111111111111111 0.0
0.0 0.005222222222222223 0.0
0.0 0.005333333333333333 0.0
0.0 0.0054444444444444445 0.0
0.0 0.005555555555555556 0.0
0.0 0.005666666666666667 0.0
0.0 0.0057777777777777775 0.0
0.0 0.005888888888888889 0.0
0.0 0.006 0.0
0.0 0.01711111111111111 0.0
0.0 0.028222222222222225 0.0
0.0 0.03933333333333333 0.0
0.0 0.050444444444444445 0.0
0.0 0.06155555555555556 0.0
0.0 0.07266666666666667 0.0
0.0 0.08377777777777778 0.0
0.0 0.0948888888888889 0.0
0.0 0.10600000000000001 0.0
0.0 0.10611111111111113 0.0
0.0 0.10622222222222223 0.0
0.0 0.10633333333333335 0.0
0.0 0.10644444444444445 0.0
0.0 0.10655555555555557 0.0
0.0 0.10666666666666667 0.0
0.0 0.10677777777777779 0.0
0.0 0.1068888888888889 0.0
0.0 0.10700000000000001 0.0
1.1111111111111112E-4 0.0 0.0
1.1111111111111112E-4 3.846153846153846E-4 0.0
1.1111111111111112E-4 7.692307692307692E-4 0.0
1.1111111111111112E-4 0.0011538461538461537 0.0
1.1111111111111112E-4 0.0015384615384615385 0.0
1.1111111111111112E-4 0.0019230769230769232 0.0
1.1111111111111112E-4 0.0023076923076923075 0.0
1.1111111111111112E-4 0.002692307692307692 0.0
1.1111111111111112E-4 0.003076923076923077 0.0
1.1111111111111112E-4 0.0034615384615384616 0.0
1.1111111111111112E-4 0.0038461538461538464 0.0
1.1111111111111112E-4 0.004230769230769231 0.0
1.1111111111111112E-4 0.004615384615384615 0.0
1.1111111111111112E-4 0.005 0.0
1.1111111111111112E-4 0.005111111111111111 0.0
1.1111111111111112E-4 0.005222222222222223 0.0
1.1111111111111112E-4 0.005333333333333333 0.0
1.1111111111111112E-4 0.0054444444444444445 0.0
1.1111111111111112E-4 0.005555555555555556 0.0
1.1111111111111112E-4 0.005666666666666667 0.0
1.1111111111111112E-4 0.0057777777777777775 0.0
1.1111111111111112E-4 0.005888888888888889 0.0
1.1111111111111112E-4 0.006 0.0
1.1111111111111112E-4 0.01711111111111111 0.0
1.1111111111111112E-4 0.028222222222222225 0.0
1.1111111111111112E-4 0.03933333333333333 0.0
1.1111111111111112E-4 0.050444444444444445 0.0
1.1111111111111112E-4 0.06155555555555556 0.0
1.1111111111111112E-4 0.07266666666666667 0.0
1.1111111111111112E-4 0.08377777777777778 0.0
1.1111111111111112E-4 0.0948888888888889 0.0
1.1111111111111112E-4 0.10600000000000001 0.0
1.1111111111111112E-4 0.10611111111111113 0.0
1.1111111111111112E-4 0.10622222222222223 0.0
1.1111111111111112E-4 0.10633333333333335 0.0
1.1111111111111112E-4 0.10644444444444445 0.0
1.1111111111111112E-4 0.10655555555555557 0.0
1.1111111111111112E-4 0.10666666666666667 0.0
1.1111111111111112E-4 0.10677777777777779 0.0
1.1111111111111112E-4 0.1068888888888889 0.0
1.1111111111111112E-4 0.10700000000000001 0.0
2.2222222222222223E-4 0.0 0.0
2.2222222222222223E-4 3.846153846153846E-4 0.0
2.2222222222222223E-4 7.692307692307692E-4 0.0
2.2222222222222223E-4 0.0011538461538461537 0.0
2.2222222222222223E-4 0.0015384615384615385 0.0
2.2222222222222223E-4 0.0019230769230769232 0.0
2.2222222222222223E-4 0.0023076923076923075 0.0
2.2222222222222223E-4 0.002692307692307692 0.0
2.2222222222222223E-4 0.003076923076923077 0.0
2.2222222222222223E-4 0.0034615384615384616 0.0
2.2222222222222223E-4 0.0038461538461538464 0.0
2.2222222222222223E-4 0.004230769230769231 0.0
2.2222222222222223E-4 0.004615384615384615 0.0
2.2222222222222223E-4 0.005 0.0
2.2222222222222223E-4 0.005111111111111111 0.0
2.2222222222222223E-4 0.005222222222222223 0.0
2.2222222222222223E-4 0.005333333333333333 0.0
2.2222222222222223E-4 0.0054444444444444445 0.0
2.2222222222222223E-4 0.005555555555555556 0.0
2.2222222222222223E-4 0.005666666666666667 0.0
2.2222222222222223E-4 0.0057777777777777775 0.0
2.2222222222222223E-4 0.005888888888888889 0.0
2.2222222222222223E-4 0.006 0.0
2.2222222222222223E-4 0.01711111111111111 0.0
2.2222222222222223E-4 0.028222222222222225 0.0
2.2222222222222223E-4 0.03933333333333333 0.0
2.2222222222222223E-4 0.050444444444444445 0.0
2.2222222222222223E-4 0.06155555555555556 0.0
2.2222222222222223E-4 0.07266666666666667 0.0
2.2222222222222223E-4 0.08377777777777778 0.0
2.2222222222222223E-4 0.0948888888888889 0.0
2.2222222222222223E-4 0.10600000000000001 0.0
2.2222222222222223E-4 0.10611111111111113 0.0
2.2222222222222223E-4 0.10622222222222223 0.0
2.2222222222222223E-4 0.10633333333333335 0.0
2.2222222222222223E-4 0.10644444444444445 0.0
2.2222222222222223E-4 0.10655555555555557 0.0
2.2222222222222223E-4 0.10666666666666667 0.0
2.2222222222222223E-4 0.10677777777777779 0.0
2.2222222222222223E-4 0.1068888888888889 0.0
2.2222222222222223E-4 0.10700000000000001 0.0
3.333333333333334E-4 0.0 0.0
3.333333333333334E-4 3.846153846153846E-4 0.0
3.333333333333334E-4 7.692307692307692E-4 0.0
3.333333333333334E-4 0.0011538461538461537 0.0
3.333333333333334E-4 0.0015384615384615385 0.0
3.333333333333334E-4 0.0019230769230769232 0.0
3.333333333333334E-4 0.0023076923076923075 0.0
3.333333333333334E-4 0.002692307692307692 0.0
3.333333333333334E-4 0.003076923076923077 0.0
3.333333333333334E-4 0.0034615384615384616 0.0
3.333333333333334E-4 0.0038461538461538464 0.0
3.333333333333334E-4 0.004230769230769231 0.0
3.333333333333334E-4 0.004615384615384615 0.0
3.333333333333334E-4 0.005 0.0
3.333333333333334E-4 0.005111111111111111 0.0
3.333333333333334E-4 0.005222222222222223 0.0
3.333333333333334E-4 0.005333333333333333 0.0
3.333333333333334E-4 0.0054444444444444445 0.0
3.333333333333334E-4 0.005555555555555556 0.0
3.333333333333334E-4 0.005666666666666667 0.0
3.333333333333334E-4 0.0057777777777777775 0.0
3.333333333333334E-4 0.005888888888888889 0.0
3.333333333333334E-4 0.006 0.0
3.333333333333334E-4 0.01711111111111111 0.0
3.333333333333334E-4 0.028222222222222225 0.0
3.333333333333334E-4 0.03933333333333333 0.0
3.333333333333334E-4 0.050444444444444445 0.0
3.333333333333334E-4 0.06155555555555556 0.0
3.333333333333334E-4 0.07266666666666667 0.0
3.333333333333334E-4 0.08377777777777778 0.0
3.333333333333334E-4 0.0948888888888889 0.0
3.333333333333334E-4 0.10600000000000001 0.0
3.333333333333334E-4 0.10611111111111113 0.0
3.333333333333334E-4 0.10622222222222223 0.0
3.333333333333334E-4 0.10633333333333335 0.0
3.333333333333334E-4 0.10644444444444445 0.0
3.333333333333334E-4 0.10655555555555557 0.0
3.333333333333334E-4 0.10666666666666667 0.0
3.333333333333334E-4 0.10677777777777779 0.0
3.333333333333334E-4 0.1068888888888889 0.0
3.333333333333334E-4 0.10700000000000001 0.0
4.4444444444444447E-4 0.0 0.0
4.4444444444444447E-4 3.846153846153846E-4 0.0
4.4444444444444447E-4 7.692307692307692E-4 0.0
4.4444444444444447E-4 0.0011538461538461537 0.0
4.4444444444444447E-4 0.0015384615384615385 0.0
4.4444444444444447E-4 0.0019230769230769232 0.0
4.4444444444444447E-4 0.0023076923076923075 0.0
4.4444444444444447E-4 0.002692307692307692 0.0
4.4444444444444447E-4 0.003076923076923077 0.0
4.4444444444444447E-4 0.0034615384615384616 0.0
4.4444444444444447E-4 0.0038461538461538464 0.0
4.4444444444444447E-4 0.004230769230769231 0.0
4.4444444444444447E-4 0.004615384615384615 0.0
4.4444444444444447E-4 0.005 0.0
4.4444444444444447E-4 0.005111111111111111 0.0
4.4444444444444447E-4 0.005222222222222223 0.0
4.4444444444444447E-4 0.005333333333333333 0.0
4.4444444444444447E-4 0.0054444444444444445 0.0
4.4444444444444447E-4 0.005555555555555556 0.0
4.4444444444444447E-4 0.005666666666666667 0.0
4.4444444444444447E-4 0.0057777777777777775 0.0
4.4444444444444447E-4 0.005888888888888889 0.0
4.4444444444444447E-4 0.006 0.0
4.4444444444444447E-4 0.01711111111111111 0.0
4.4444444444444447E-4 0.028222222222222225 0.0
4.4444444444444447E-4 0.03933333333333333 0.0
4.4444444444444447E-4 0.050444444444444445 0.0
4.4444444444444447E-4 0.06155555555555556 0.0
4.4444444444444447E-4 0.07266666666666667 0.0
4.4444444444444447E-4 0.08377777777777778 0.0
4.4444444444444447E-4 0.0948888888888889 0.0
4.4444444444444447E-4 0.10600000000000001 0.0
4.4444444444444447E-4 0.10611111111111113 0.0
4.4444444444444447E-4 0.10622222222222223 0.0
4.4444444444444447E-4 0.10633333333333335 0.0
4.4444444444444447E-4 0.10644444444444445 0.0
4.4444444444444447E-4 0.10655555555555557 0.0
4.4444444444444447E-4 0.10666666666666667 0.0
4.4444444444444447E-4 0.10677777777777779 0.0
4.4444444444444447E-4 0.1068888888888889 0.0
4.4444444444444447E-4 0.10700000000000001 0.0
5.555555555555556E-4 0.0 0.0
5.555555555555556E-4 3.846153846153846E-4 0.0
5.555555555555556E-4 7.692307692307692E-4 0.0
5.555555555555556E-4 0.0011538461538461537 0.0
5.555555555555556E-4 0.0015384615384615385 0.0
5.555555555555556E-4 0.0019230769230769232 0.0
5.555555555555556E-4 0.0023076923076923075 0.0
5.555555555555556E-4 0.002692307692307692 0.0
5.555555555555556E-4 0.003076923076923077 0.0
5.555555555555556E-4 0.0034615384615384616 0.0
5.555555555555556E-4 0.0038461538461538464 0.0
5.555555555555556E-4 0.004230769230769231 0.0
5.555555555555556E-4 0.004615384615384615 0.0
5.555555555555556E-4 0.005 0.0
5.555555555555556E-4 0.005111111111111111 0.0
5.555555555555556E-4 0.005222222222222223 0.0
5.555555555555556E-4 0.005333333333333333 0.0
5.555555555555556E-4 0.0054444444444444445 0.0
5.555555555555556E-4 0.005555555555555556 0.0
5.555555555555556E-4 0.005666666666666667 0.0
5.555555555555556E-4 0.0057777777777777775 0.0
5.555555555555556E-4 0.005888888888888889 0.0
5.555555555555556E-4 0.006 0.0
5.555555555555556E-4 0.01711111111111111 0.0
5.555555555555556E-4 0.028222222222222225 0.0
5.555555555555556E-4 0.03933333333333333 0.0
5.555555555555556E-4 0.050444444444444445 0.0
5.555555555555556E-4 0.06155555555555556 0.0
[...]
POINT_DATA 1353
SCALARS Temperatura float 1
LOOKUP_TABLE default
32.83508897738404
32.68936594213675
32.54440224363259
32.400167453428075
32.25662821382106
32.11374108991251
31.971449098031794
31.829676374281124
31.688318946047715
31.54722624314351
31.406168749938907
31.26475456809628
31.122346845221657
30.97723915425079
30.830700065437203
30.685112776822233
30.539449551588355
30.393357616967787
30.24651942077845
30.09862838477539
29.949373254326932
29.79843623658245
29.645496870484873
12.178181313333154
12.056490420692217
12.090682866335428
12.082797112882202
12.084727056922594
12.084292510742161
12.084213254557682
12.086432145479792
12.191581576908947
12.192884120832657
12.194195075572143
12.195523341155965
12.196877258926177
12.198264268546046
12.199690659410603
12.20116141294295
12.2026801170967
12.204248928497936
32.83590525610354
32.69017560765965
32.54520426815611
32.400962226661605
32.257416141669985
32.11452274367533
31.972225235120376
31.830448140807704
31.689088033276263
31.54799626118125
31.406943397181387
31.26555450952306
31.12315157416741
30.978347144652652
30.83294240154979
30.687529096255563
30.54200717241224
30.396037142553624
30.249319810560003
30.101553123084347
29.952426225156668
29.801618996289772
29.648806899352483
12.174935586865976
12.055360692426753
12.089002594774348
12.08126013900187
12.083152855293546
12.082727429490372
12.082648136508219
12.084857775828478
12.190035096366048
12.191333292607593
12.192639978529659
12.193964272767495
12.195314692909898
12.196698803415838
12.198122970130456
12.19959221368766
12.20111013772005
12.202678902981596
32.83682721695458
32.6910937926619
32.546116981647685
32.40187029992583
32.258320767336116
32.11542553583791
31.973128406179768
31.831354956693385
31.690003826031614
31.54893021638465
31.407912850861464
31.266593216526505
31.124318814451087
30.97997353343704
30.83527864073108
30.690458217796753
30.545378275825275
30.399823902106913
30.253525399250254
30.106192241008987
29.957513650607144
29.80716188171433
29.654799385309385
12.168394215393839
12.055221752986244
12.087196207824249
12.079887512835214
12.08166754648249
12.08126972058804
12.081190348920213
12.083371267830966
12.188589459727394
12.189873830537241
12.191166948009199
12.192478606321089
12.193817857155121
12.195192631393393
12.196609508450432
12.198073609334854
12.199588570538596
12.201156556298082
32.83785594347123
32.6921204441939
32.54714033326789
32.40289158355422
32.25934196945124
32.11644930129388
31.974158356123255
31.83239644216385
31.691065520982963
31.55002714798921
31.409073364551624
31.267869368349853
31.125829654935778
30.982033819990452
30.838073765474334
30.69397073354023
30.549580194135828
30.404709175648648
30.259118299034572
30.11252850367568
29.964626589359646
29.815069895439134
29.663496141743572
12.158547916847338
12.056077514651028
12.085262326039267
12.078679729272118
12.080271008813291
12.079919442062485
12.079839948394506
12.08197250472437
12.187245188887442
12.188505472921504
12.189775021271318
12.191064836804639
12.1923848874225
12.193743690239698
12.195148128455081
12.19660343436459
12.198113254619178
12.199679732009356
32.83899202739648
32.6932556050056
32.54827421123368
32.40402592605307
32.26047954291313
32.11759376017812
31.97531467219204
31.833571930180387
31.692271948294316
31.551284983718254
31.41042040740086
31.269377078504256
31.1276545052017
30.984493190750122
30.841364414008062
30.69811732996977
30.55460977343194
30.410663807554926
30.266058266437742
30.120524383349085
29.973743178431572
29.825347559064827
29.674933856290053
12.145381474253481
12.057934419166779
12.083198651012273
12.077637595606586
12.078963026071436
12.07867667579452
12.07859701685009
12.080661271386557
12.186003171335877
12.18722766548739
12.188462385273013
12.189720225171818
12.19101248035197
12.192348407834203
12.193735179426717
12.195178051302458
12.196680587179818
12.198244843619193
32.84023577771451
32.694499297571646
32.54951846177412
32.405273109941994
32.26173320106356
32.1188585240908
31.97659678661452
31.834880506895104
31.69362154067609
31.552700793480913
31.411948516662264
31.271105652912237
31.129764427003632
30.987318129578476
30.845131615223938
30.702876661278054
30.560426438777885
30.417623755889483
30.274269347848755
30.130108454281146
29.984816745784308
29.837992246324774
29.68916530121623
12.128873398012022
12.060801533729816
12.08100193756333
12.076762239647046
12.077743285364274
12.077541527171467
12.07746166523191
12.079437240030538
12.184864712829471
12.186039342200583
12.187225994190939
12.188440401670512
12.189695587490144
12.191001518097742
12.192365425338895
12.193792339714404
12.195285550686554
12.196846913634817
32.84158731881896
32.6958514828838
32.55087288578031
32.40663285279595
32.26310257787111
32.12024310237346
31.97800398808578
31.836321041789073
31.695112357305167
31.55427100239762
31.413651060691596
31.273041462400457
31.132130760353093
30.99046955081964
30.849327618285184
30.70818614769217
30.56694513250277
30.42547907140065
30.283623296877018
30.141153677411605
29.997753430035367
29.852980402053785
29.706261436826914
12.108995343202691
12.064690714867176
12.078667946884517
12.076055123179797
12.076611373627866
12.076514124475453
12.07643403969885
12.078299946330812
12.183831625447262
12.18493843485485
12.186060795743607
12.187218662289592
12.188426956756206
12.18969583975963
12.191031981490765
12.192439724089667
12.193921786318127
12.195479660702702
32.84304664033182
32.69731204785362
32.552337232019674
32.40810480835274
32.26458723092353
32.12174690936216
31.979535437475985
31.837892216594234
31.696742146507788
31.55599152076225
31.415520373885577
31.275169156404484
31.134724406889703
30.993901991545933
30.853885068213728
30.71395209887074
30.574039962459924
30.434067366859363
30.293922672501278
30.153442317732985
30.01236825184398
29.87023516628512
29.72631508814005
12.085711099023015
12.069616889392158
12.076191367422297
12.07551806430885
12.075566771954668
12.075594617774577
12.075514332045145
12.077248749223953
12.182906376217701
12.183920656808244
12.184958110149346
12.186044808929356
12.187196602209298
12.18842210964774
12.189726334038719
12.191112283031023
12.192581742623972
12.194135659307141
32.844613624913436
32.69888080358304
32.55391119181083
32.40968856714551
32.266186645020944
32.12336927279698
31.981190185404955
31.83959255897906
31.69850841891428
31.557857869559108
31.417548042512934
31.277472425034293
31.137515649484907
30.997564696186096
30.85872221211245
30.720056752013335
30.58154955590353
30.443174303217994
30.304890672560205
30.166631341600958
30.02827072984411
29.889549266080518
29.749447739027882
12.058974735482467
12.075598563900703
12.073565673568561
12.075153276627814
12.074608845931307
12.074783176583473
12.074702799094661
12.076282756199682
12.182092364158498
12.182975752914805
12.183902021462307
12.184903883505578
12.185991486995652
12.18716903362728
12.188438526261715
12.189800982539888
12.191256923325229
12.192806590578192
32.84628806564625
32.70055748766923
32.555594395761574
32.41138365694513
32.26790023614563
32.1251094430409
31.982967191123752
31.841420480114575
31.700408523977394
31.559865321611944
31.419725227628145
31.279934546066926
31.140474440651985
31.001403575234068
30.86374808605085
30.72636616244694
30.5892867800722
30.452544044586777
30.31617944447611
30.180244950422665
30.04480767748192
29.909957708043947
12.648883825150778
12.648883825150778
12.648883825150778
12.648883825150778
12.648883825150778
12.648883825150778
12.648883825150778
12.648883825150778
12.648883825150778
12.648883825150778
12.182070886534255
12.182866395413312
12.183775906850235
12.184795876239084
12.185923730109486
12.187157577871243
12.188496057087136
12.189938241773074
12.191483587534844
33.26990169948662
33.12521106822284
32.98320218929844
32.84388623903692
32.70728151169098
32.57341352237258
32.44231517432801
32.31402693474164
32.18859690628654
32.06608057920527
31.946539839873747
31.830040407980587
31.7166462434127
31.606408585525706
31.49881003790125
31.391681903158773
31.285022126628615
31.17882730843691
31.07309209354693
30.96780833274123
30.862963821658326
30.758540188224053
12.648883825150778
12.648883825150778
12.648883825150778
12.648883825150778
12.648883825150778
12.648883825150778
12.648883825150778
12.648883825150778
12.648883825150778
12.648883825150778
12.07345027566531
12.074434019357426
12.075500527009766
12.076650760379117
12.0778854141324
12.079204993889071
12.0806098582686
12.082100243883687
12.083676280326168
33.54358817913826
33.398735488673154
33.256122267341006
33.11574361574534
32.9775909963314
32.841652123399015
32.70791080177537
32.57634672771102
32.44693528057505
32.31964736154049
32.19444939239868
32.07130369846871
31.95016967439978
31.83100637821585
31.713886101378616
31.59713220307834
31.48074145450168
31.36471093503044
31.249038195330584
31.133721482394005
31.018760078478053
30.904154869469195
12.648883825150778
12.648883825150778
12.648883825150778
12.648883825150778
12.648883825150778
12.648883825150778
12.648883825150778
12.648883825150778
12.648883825150778
12.648883825150778
12.07099065749422
12.071789812299935
12.07269908573312
12.073718136079473
12.074846702403223
12.076084583398695
12.077431625948535
12.078887718299873
12.08045278596225
33.67105170831867
33.52621794494296
33.38361086092172
33.24323123392195
33.10508009013549
32.96915876229799
32.835468973751134
32.70401294576051
32.57479352149514
32.44781429278911
32.32307970044956
32.20059504865232
32.08036632575476
31.962399654946942
31.84664170660493
31.731282994675535
31.61632303000296
31.501761224664563
31.3875968491246
31.273828972645287
31.16045637296656
31.047477384191488
12.648883825150778
12.648883825150778
12.648883825150778
12.648883825150778
12.648883825150778
12.648883825150778
12.648883825150778
12.648883825150778
12.648883825150778
12.648883825150778
12.070973925637304
12.071818310342668
12.072765962886805
12.07381693621566
12.074971263266198
12.076228962706324
12.077590042055288
12.079054499551818
12.080622325280283
33.73563770033384
33.59080250372449
33.44816395899257
33.30772119781802
33.169472456819264
33.03341505472095
32.899545359334404
32.76785874472064
32.638349539817405
32.51101097167938
32.38583511056164
32.262812832251655
32.14193382627333
32.02318669775003
31.90657785876502
31.790355689302324
31.674518370384877
31.559064080413425
31.443991006470696
31.32929736015052
31.214981401679886
31.101041480688682
12.648883825150778
12.648883825150778
12.648883825150778
12.648883825150778
12.648883825150778
12.648883825150778
12.648883825150778
12.648883825150778
12.648883825150778
12.648883825150778
12.070975348816672
12.071807890714252
12.072745525377453
12.073788188597586
12.074935825095443
12.076188386961629
12.077545832804214
12.079008127236108
12.080575240564878
33.76589481711757
33.621058773551084
33.47840536578392
33.337934173516956
33.19964420213973
33.06353389177043
32.929601130403576
32.79784327121261
32.66825715385393
32.54083912915752
32.41558508552012
32.29249047311918
32.17155031845254
32.05275921638769
31.936118751108584
31.81986810610291
31.704005976662582
31.58853103386499
31.47344192181247
31.35873725364712
31.244415605321777
31.130475504869914
12.648883825150778
12.648883825150778
12.648883825150778
12.648883825150778
12.648883825150778
12.648883825150778
12.648883825150778
12.648883825150778
12.648883825150778
12.648883825150778
12.070974129359659
12.071809778629298
12.072750033583791
12.073794864440243
12.074944242067307
12.076198138412224
12.077556526735659
12.0790193817535
12.080586679722805
33.779127322083696
33.63429145639441
33.49163309328086
33.35115170330523
33.212846103360846
33.076714454206055
32.94275425688065
32.810962347930605
32.68133489340449
32.553867381697124
32.428554615604305
32.30539070457009
32.18436905914624
32.065482391242156
31.948738871174005
31.832383969345198
31.71641620117847
31.600834062370115
31.485636029781055
31.370820562682177
31.256386104646456
31.14233108673518
12.648883825150778
12.648883825150778
12.648883825150778
12.648883825150778
12.648883825150778
12.648883825150778
12.648883825150778
12.648883825150778
12.648883825150778
12.648883825150778
12.070974666995047
12.071809486205419
12.07274904349956
12.073793298875358
12.074942215384427
12.076195759008428
12.077553898590665
12.07901660579442
12.08058385507746
33.78280181645273
33.63796577782925
33.495305392174174
33.354820162742996
33.2165089642054
33.080370044958364
32.94640103053412
32.814598928166454
32.68496013256912
32.55748043293323
32.43215502101486
32.30897849988198
32.187944892371355
32.06904764751526
31.952294745214314
31.83593081937228
31.719954459937195
31.60436423619828
31.489158696545033
31.374336368051058
31.259895755735588
31.14583534117833
12.648883825150778
12.648883825150778
12.648883825150778
12.648883825150778
12.648883825150778
12.648883825150778
12.648883825150778
12.648883825150778
12.648883825150778
12.648883825150778
12.070974405578118
12.071809495966013
12.072749280367729
12.073793722485217
12.07494278822091
12.076196445741177
12.077554665511657
12.079017420318795
12.080584685282862
33.779127322083504
33.6342914563942
33.491633093280626
33.351151703304964
33.212846103360526
33.07671445420566
32.942754256880185
32.81096234793011
32.681334893403964
32.553867381696534
32.42855461560363
32.30539070456931
32.18436905914536
32.06548239124117
31.948738871172907
31.832383969344
31.716416201177193
31.60083406236876
31.485636029779634
31.370820562680706
31.25638610464496
31.14233108673366
12.648883825150778
12.648883825150778
12.648883825150778
12.648883825150778
12.648883825150778
12.648883825150778
12.648883825150778
12.648883825150778
12.648883825150778
12.648883825150778
12.07097466699389
12.071809486204259
12.072749043498398
12.073793298874195
12.074942215383258
12.076195759007252
12.077553898589484
12.07901660579324
12.080583855076279
33.76589481711864
33.621058773552164
33.478405365785015
33.33793417351807
33.199644202140874
33.06353389177161
32.92960113040477
32.797843271213786
32.668257153855095
32.5408391291587
32.41558508552133
32.292490473120424
32.171550318453825
32.05275921638904
31.936118751109994
31.819868106104373
31.704005976664096
31.588531033866573
31.473441921814086
31.35873725364876
31.244415605323407
31.13047550487154
12.648883825150778
12.648883825150778
12.648883825150778
12.648883825150778
12.648883825150778
12.648883825150778
12.648883825150778
12.648883825150778
12.648883825150778
12.648883825150778
12.070974129356033
12.071809778625656
12.072750033580132
12.073794864436564
12.074944242063605
12.076198138408508
12.077556526731934
12.079019381749768
12.080586679719072
33.73563770033557
33.59080250372622
33.44816395899434
33.30772119781981
33.16947245682104
33.03341505472268
32.89954535933614
32.76785874472236
32.638349539819096
32.51101097168102
32.38583511056319
32.26281283225309
32.14193382627465
32.023186697751235
31.90657785876613
31.790355689303354
31.674518370385858
31.55906408041436
31.4439910064716
31.329297360151397
31.214981401680756
31.101041480689542
12.648883825150778
12.648883825150778
12.648883825150778
12.648883825150778
12.648883825150778
12.648883825150778
12.648883825150778
12.648883825150778
12.648883825150778
12.648883825150778
12.070975348816411
12.071807890713991
12.072745525377194
12.073788188597332
12.074935825095194
12.076188386961393
12.077545832803981
12.079008127235872
12.080575240564642
33.671051708323276
33.526217944947554
33.383610860926304
33.243231233926515
33.10508009014004
32.969158762302534
32.83546897375566
32.70401294576503
32.574793521499664
32.44781429279365
32.32307970045413
32.200595048656915
32.080366325759364
31.962399654951554
31.846641706609546
31.731282994680157
31.616323030007553
31.501761224669096
31.387596849129103
31.27382897264976
31.160456372970973
31.04747738419585
12.648883825150778
12.648883825150778
12.648883825150778
12.648883825150778
12.648883825150778
12.648883825150778
12.648883825150778
12.648883825150778
12.648883825150778
12.648883825150778
12.070973925636743
12.071818310342103
12.072765962886235
12.07381693621509
12.074971263265628
12.076228962705748
12.07759004205471
12.079054499551242
12.080622325279709
33.54358817914417
33.39873548867907
33.25612226734696
33.11574361575132
32.977590996337426
32.84165212340508
32.70791080178148
32.576346727717166
32.44693528058122
32.31964736154669
32.19444939240491
32.07130369847498
31.95016967440611
31.83100637822225
31.71388610138509
31.597132203084886
31.480741454508294
31.36471093503714
31.249038195337334
31.1337214824008
31.01876007848488
30.90415486947603
12.648883825150778
12.648883825150778
12.648883825150778
12.648883825150778
12.648883825150778
12.648883825150778
12.648883825150778
12.648883825150778
12.648883825150778
12.648883825150778
12.07099065749184
12.07178981229754
12.072699085730711
12.073718136077051
12.074846702400798
12.07608458339627
12.077431625946113
12.07888771829746
12.08045278595984
33.26990169948744
33.12521106822367
32.98320218929927
32.84388623903776
32.70728151169181
32.573413522373386
32.44231517432878
32.31402693474239
32.18859690628728
32.06608057920601
31.9465398398745
31.830040407981343
31.716646243413454
31.606408585526452
31.498810037901986
31.391681903159494
31.28502212662932
31.178827308437572
31.073092093547587
30.967808332741868
30.862963821658923
30.758540188224625
12.648883825150778
12.648883825150778
12.648883825150778
12.648883825150778
12.648883825150778
12.648883825150778
12.648883825150778
12.648883825150778
12.648883825150778
12.648883825150778
12.073450275665568
12.074434019357682
12.07550052701002
12.076650760379371
12.077885414132645
12.079204993889308
12.080609858268822
12.082100243883898
12.083676280326376
32.84628806564569
32.70055748766867
32.555594395761005
32.41138365694454
32.26790023614503
32.12510944304033
31.982967191123223
31.84142048011408
31.700408523976954
31.559865321611547
31.41972522762778
31.2799345460666
31.140474440651683
31.00140357523379
30.86374808605059
30.726366162446723
30.589286780072026
30.452544044586674
30.316179444476035
30.180244950422615
30.044807677481906
29.90995770804396
12.648883825150778
12.648883825150778
12.648883825150778
12.648883825150778
12.648883825150778
12.648883825150778
12.648883825150778
12.648883825150778
12.648883825150778
12.648883825150778
12.182070886532339
12.182866395411407
12.183775906848345
12.184795876237203
12.185923730107614
12.187157577869383
12.18849605708529
12.189938241771234
12.191483587533005
32.8446136249129
32.698880803582455
32.55391119181026
32.40968856714492
32.26618664502037
32.12336927279642
31.981190185404458
31.839592558978584
31.698508418913857
31.55785786955872
31.41754804251256
31.277472425033995
31.137515649484666
30.997564696185865
30.858722212112234
30.720056752013146
30.58154955590336
30.44317430321788
30.304890672560106
30.166631341600883
30.028270729844067
29.88954926608051
29.74944773902789
12.058974735483604
12.075598563905798
12.073565673570458
12.075153276629585
12.07460884593836
12.074783176585084
12.074702799094416
12.07628275619999
12.18209236415657
12.182975752912872
12.183902021460385
12.184903883503669
12.185991486993753
12.18716903362539
12.188438526259835
12.189800982538005
12.191256923323355
12.192806590576318
32.8430466403313
32.69731204785306
32.55233723201911
32.40810480835213
32.26458723092296
32.121746909361605
31.979535437475473
31.837892216593815
31.696742146507383
31.555991520761893
31.415520373885208
31.275169156404196
31.134724406889475
30.993901991545723
30.85388506821353
30.71395209887057
30.574039962459764
30.434067366859235
30.293922672501168
30.153442317732907
30.012368251843917
29.87023516628509
29.72631508814005
12.085711099024179
12.069616889397267
12.07619136742419
12.075518064310637
12.07556677196175
12.075594617776188
12.07551433204491
12.07724874922424
12.182906376215755
12.183920656806304
12.184958110147413
12.186044808927436
12.187196602207381
12.18842210964583
12.189726334036811
12.19111228302912
12.192581742622068
12.194135659305246
32.84158731881843
32.69585148288325
32.55087288577974