# vtk DataFile Version 2.0
Niestacjonarne zagadnienie cieplne - ogrzewanie wody w garnku stalowym
ASCII
DATASET UNSTRUCTURED_GRID
POINTS 1353 float
0.0 0.0 0.0
0.0 3.846153846153846E-4 0.0
0.0 7.692307692307692E-4 0.0
0.0 0.0011538461538461537 0.0
0.0 0.0015384615384615385 0.0
0.0 0.0019230769230769232 0.0
0.0 0.0023076923076923075 0.0
0.0 0.002692307692307692 0.0
0.0 0.003076923076923077 0.0
0.0 0.0034615384615384616 0.0
0.0 0.0038461538461538464 0.0
0.0 0.004230769230769231 0.0
0.0 0.004615384615384615 0.0
0.0 0.005 0.0
0.0 0.005111111111111111 0.0
0.0 0.005222222222222223 0.0
0.0 0.005333333333333333 0.0
0.0 0.0054444444444444445 0.0
0.0 0.005555555555555556 0.0
0.0 0.005666666666666667 0.0
0.0 0.0057777777777777775 0.0
0.0 0.005888888888888889 0.0
0.0 0.006 0.0
0.0 0.01711111111111111 0.0
0.0 0.028222222222222225 0.0
0.0 0.03933333333333333 0.0
0.0 0.050444444444444445 0.0
0.0 0.06155555555555556 0.0
0.0 0.07266666666666667 0.0
0.0 0.08377777777777778 0.0
0.0 0.0948888888888889 0.0
0.0 0.10600000000000001 0.0
0.0 0.10611111111111113 0.0
0.0 0.10622222222222223 0.0
0.0 0.10633333333333335 0.0
0.0 0.10644444444444445 0.0
0.0 0.10655555555555557 0.0
0.0 0.10666666666666667 0.0
0.0 0.10677777777777779 0.0
0.0 0.1068888888888889 0.0
0.0 0.10700000000000001 0.0
1.1111111111111112E-4 0.0 0.0
1.1111111111111112E-4 3.846153846153846E-4 0.0
1.1111111111111112E-4 7.692307692307692E-4 0.0
1.1111111111111112E-4 0.0011538461538461537 0.0
1.1111111111111112E-4 0.0015384615384615385 0.0
1.1111111111111112E-4 0.0019230769230769232 0.0
1.1111111111111112E-4 0.0023076923076923075 0.0
1.1111111111111112E-4 0.002692307692307692 0.0
1.1111111111111112E-4 0.003076923076923077 0.0
1.1111111111111112E-4 0.0034615384615384616 0.0
1.1111111111111112E-4 0.0038461538461538464 0.0
1.1111111111111112E-4 0.004230769230769231 0.0
1.1111111111111112E-4 0.004615384615384615 0.0
1.1111111111111112E-4 0.005 0.0
1.1111111111111112E-4 0.005111111111111111 0.0
1.1111111111111112E-4 0.005222222222222223 0.0
1.1111111111111112E-4 0.005333333333333333 0.0
1.1111111111111112E-4 0.0054444444444444445 0.0
1.1111111111111112E-4 0.005555555555555556 0.0
1.1111111111111112E-4 0.005666666666666667 0.0
1.1111111111111112E-4 0.0057777777777777775 0.0
1.1111111111111112E-4 0.005888888888888889 0.0
1.1111111111111112E-4 0.006 0.0
1.1111111111111112E-4 0.01711111111111111 0.0
1.1111111111111112E-4 0.028222222222222225 0.0
1.1111111111111112E-4 0.03933333333333333 0.0
1.1111111111111112E-4 0.050444444444444445 0.0
1.1111111111111112E-4 0.06155555555555556 0.0
1.1111111111111112E-4 0.07266666666666667 0.0
1.1111111111111112E-4 0.08377777777777778 0.0
1.1111111111111112E-4 0.0948888888888889 0.0
1.1111111111111112E-4 0.10600000000000001 0.0
1.1111111111111112E-4 0.10611111111111113 0.0
1.1111111111111112E-4 0.10622222222222223 0.0
1.1111111111111112E-4 0.10633333333333335 0.0
1.1111111111111112E-4 0.10644444444444445 0.0
1.1111111111111112E-4 0.10655555555555557 0.0
1.1111111111111112E-4 0.10666666666666667 0.0
1.1111111111111112E-4 0.10677777777777779 0.0
1.1111111111111112E-4 0.1068888888888889 0.0
1.1111111111111112E-4 0.10700000000000001 0.0
2.2222222222222223E-4 0.0 0.0
2.2222222222222223E-4 3.846153846153846E-4 0.0
2.2222222222222223E-4 7.692307692307692E-4 0.0
2.2222222222222223E-4 0.0011538461538461537 0.0
2.2222222222222223E-4 0.0015384615384615385 0.0
2.2222222222222223E-4 0.0019230769230769232 0.0
2.2222222222222223E-4 0.0023076923076923075 0.0
2.2222222222222223E-4 0.002692307692307692 0.0
2.2222222222222223E-4 0.003076923076923077 0.0
2.2222222222222223E-4 0.0034615384615384616 0.0
2.2222222222222223E-4 0.0038461538461538464 0.0
2.2222222222222223E-4 0.004230769230769231 0.0
2.2222222222222223E-4 0.004615384615384615 0.0
2.2222222222222223E-4 0.005 0.0
2.2222222222222223E-4 0.005111111111111111 0.0
2.2222222222222223E-4 0.005222222222222223 0.0
2.2222222222222223E-4 0.005333333333333333 0.0
2.2222222222222223E-4 0.0054444444444444445 0.0
2.2222222222222223E-4 0.005555555555555556 0.0
2.2222222222222223E-4 0.005666666666666667 0.0
2.2222222222222223E-4 0.0057777777777777775 0.0
2.2222222222222223E-4 0.005888888888888889 0.0
2.2222222222222223E-4 0.006 0.0
2.2222222222222223E-4 0.01711111111111111 0.0
2.2222222222222223E-4 0.028222222222222225 0.0
2.2222222222222223E-4 0.03933333333333333 0.0
2.2222222222222223E-4 0.050444444444444445 0.0
2.2222222222222223E-4 0.06155555555555556 0.0
2.2222222222222223E-4 0.07266666666666667 0.0
2.2222222222222223E-4 0.08377777777777778 0.0
2.2222222222222223E-4 0.0948888888888889 0.0
2.2222222222222223E-4 0.10600000000000001 0.0
2.2222222222222223E-4 0.10611111111111113 0.0
2.2222222222222223E-4 0.10622222222222223 0.0
2.2222222222222223E-4 0.10633333333333335 0.0
2.2222222222222223E-4 0.10644444444444445 0.0
2.2222222222222223E-4 0.10655555555555557 0.0
2.2222222222222223E-4 0.10666666666666667 0.0
2.2222222222222223E-4 0.10677777777777779 0.0
2.2222222222222223E-4 0.1068888888888889 0.0
2.2222222222222223E-4 0.10700000000000001 0.0
3.333333333333334E-4 0.0 0.0
3.333333333333334E-4 3.846153846153846E-4 0.0
3.333333333333334E-4 7.692307692307692E-4 0.0
3.333333333333334E-4 0.0011538461538461537 0.0
3.333333333333334E-4 0.0015384615384615385 0.0
3.333333333333334E-4 0.0019230769230769232 0.0
3.333333333333334E-4 0.0023076923076923075 0.0
3.333333333333334E-4 0.002692307692307692 0.0
3.333333333333334E-4 0.003076923076923077 0.0
3.333333333333334E-4 0.0034615384615384616 0.0
3.333333333333334E-4 0.0038461538461538464 0.0
3.333333333333334E-4 0.004230769230769231 0.0
3.333333333333334E-4 0.004615384615384615 0.0
3.333333333333334E-4 0.005 0.0
3.333333333333334E-4 0.005111111111111111 0.0
3.333333333333334E-4 0.005222222222222223 0.0
3.333333333333334E-4 0.005333333333333333 0.0
3.333333333333334E-4 0.0054444444444444445 0.0
3.333333333333334E-4 0.005555555555555556 0.0
3.333333333333334E-4 0.005666666666666667 0.0
3.333333333333334E-4 0.0057777777777777775 0.0
3.333333333333334E-4 0.005888888888888889 0.0
3.333333333333334E-4 0.006 0.0
3.333333333333334E-4 0.01711111111111111 0.0
3.333333333333334E-4 0.028222222222222225 0.0
3.333333333333334E-4 0.03933333333333333 0.0
3.333333333333334E-4 0.050444444444444445 0.0
3.333333333333334E-4 0.06155555555555556 0.0
3.333333333333334E-4 0.07266666666666667 0.0
3.333333333333334E-4 0.08377777777777778 0.0
3.333333333333334E-4 0.0948888888888889 0.0
3.333333333333334E-4 0.10600000000000001 0.0
3.333333333333334E-4 0.10611111111111113 0.0
3.333333333333334E-4 0.10622222222222223 0.0
3.333333333333334E-4 0.10633333333333335 0.0
3.333333333333334E-4 0.10644444444444445 0.0
3.333333333333334E-4 0.10655555555555557 0.0
3.333333333333334E-4 0.10666666666666667 0.0
3.333333333333334E-4 0.10677777777777779 0.0
3.333333333333334E-4 0.1068888888888889 0.0
3.333333333333334E-4 0.10700000000000001 0.0
4.4444444444444447E-4 0.0 0.0
4.4444444444444447E-4 3.846153846153846E-4 0.0
4.4444444444444447E-4 7.692307692307692E-4 0.0
4.4444444444444447E-4 0.0011538461538461537 0.0
4.4444444444444447E-4 0.0015384615384615385 0.0
4.4444444444444447E-4 0.0019230769230769232 0.0
4.4444444444444447E-4 0.0023076923076923075 0.0
4.4444444444444447E-4 0.002692307692307692 0.0
4.4444444444444447E-4 0.003076923076923077 0.0
4.4444444444444447E-4 0.0034615384615384616 0.0
4.4444444444444447E-4 0.0038461538461538464 0.0
4.4444444444444447E-4 0.004230769230769231 0.0
4.4444444444444447E-4 0.004615384615384615 0.0
4.4444444444444447E-4 0.005 0.0
4.4444444444444447E-4 0.005111111111111111 0.0
4.4444444444444447E-4 0.005222222222222223 0.0
4.4444444444444447E-4 0.005333333333333333 0.0
4.4444444444444447E-4 0.0054444444444444445 0.0
4.4444444444444447E-4 0.005555555555555556 0.0
4.4444444444444447E-4 0.005666666666666667 0.0
4.4444444444444447E-4 0.0057777777777777775 0.0
4.4444444444444447E-4 0.005888888888888889 0.0
4.4444444444444447E-4 0.006 0.0
4.4444444444444447E-4 0.01711111111111111 0.0
4.4444444444444447E-4 0.028222222222222225 0.0
4.4444444444444447E-4 0.03933333333333333 0.0
4.4444444444444447E-4 0.050444444444444445 0.0
4.4444444444444447E-4 0.06155555555555556 0.0
4.4444444444444447E-4 0.07266666666666667 0.0
4.4444444444444447E-4 0.08377777777777778 0.0
4.4444444444444447E-4 0.0948888888888889 0.0
4.4444444444444447E-4 0.10600000000000001 0.0
4.4444444444444447E-4 0.10611111111111113 0.0
4.4444444444444447E-4 0.10622222222222223 0.0
4.4444444444444447E-4 0.10633333333333335 0.0
4.4444444444444447E-4 0.10644444444444445 0.0
4.4444444444444447E-4 0.10655555555555557 0.0
4.4444444444444447E-4 0.10666666666666667 0.0
4.4444444444444447E-4 0.10677777777777779 0.0
4.4444444444444447E-4 0.1068888888888889 0.0
4.4444444444444447E-4 0.10700000000000001 0.0
5.555555555555556E-4 0.0 0.0
5.555555555555556E-4 3.846153846153846E-4 0.0
5.555555555555556E-4 7.692307692307692E-4 0.0
5.555555555555556E-4 0.0011538461538461537 0.0
5.555555555555556E-4 0.0015384615384615385 0.0
5.555555555555556E-4 0.0019230769230769232 0.0
5.555555555555556E-4 0.0023076923076923075 0.0
5.555555555555556E-4 0.002692307692307692 0.0
5.555555555555556E-4 0.003076923076923077 0.0
5.555555555555556E-4 0.0034615384615384616 0.0
5.555555555555556E-4 0.0038461538461538464 0.0
5.555555555555556E-4 0.004230769230769231 0.0
5.555555555555556E-4 0.004615384615384615 0.0
5.555555555555556E-4 0.005 0.0
5.555555555555556E-4 0.005111111111111111 0.0
5.555555555555556E-4 0.005222222222222223 0.0
5.555555555555556E-4 0.005333333333333333 0.0
5.555555555555556E-4 0.0054444444444444445 0.0
5.555555555555556E-4 0.005555555555555556 0.0
5.555555555555556E-4 0.005666666666666667 0.0
5.555555555555556E-4 0.0057777777777777775 0.0
5.555555555555556E-4 0.005888888888888889 0.0
5.555555555555556E-4 0.006 0.0
5.555555555555556E-4 0.01711111111111111 0.0
5.555555555555556E-4 0.028222222222222225 0.0
5.555555555555556E-4 0.03933333333333333 0.0
5.555555555555556E-4 0.050444444444444445 0.0
5.555555555555556E-4 0.06155555555555556 0.0
[...]
POINT_DATA 1353
SCALARS Temperatura float 1
LOOKUP_TABLE default
111.2385073480417
111.10778925233555
110.97552800228591
110.84168358463154
110.706206042383
110.56902646122647
110.43004984930184
110.28914230549782
110.14610839544768
110.00063991952037
109.8522458769275
109.69995243745777
109.54237829498109
109.37239593814277
109.19151113447633
109.01985218756892
108.85051526955472
108.68220196309953
108.51403271526232
108.34535616593512
108.17561141551425
108.00428256819957
107.83087989876609
88.20630406553319
88.00495388979925
88.03945959732913
88.03094068549116
88.03324367643064
88.03181539916584
88.03577936945443
88.01501456572748
86.39543060360427
86.3811759940194
86.36709974735234
86.35316910379015
86.33935325336851
86.32562465246319
86.31195997905273
86.2983407392786
86.28475359630951
86.27119051571206
111.2440201185056
111.11329644474293
110.98102873302129
110.84717842097069
110.71169563530496
110.57451178061147
110.43553227534112
110.29462438101322
110.15159332236267
110.00613917691223
109.85775708017727
109.70558312544108
109.5478432489353
109.37992247424435
109.20780054999976
109.03704656473388
108.86829151886181
108.70033497881285
108.53244306978048
108.36400621711914
108.19448224189338
108.02336257809289
107.85015938116669
88.2183978463267
88.01939314176691
88.05328973451101
88.0449304124539
88.04718866109022
88.0457839515878
88.04969578396808
88.02912366817809
86.40894502094014
86.39470434311417
86.38064186714827
86.36672399544132
86.35291924173491
86.33919958291266
86.32554140298302
86.31192605741067
86.29834014936047
86.28477562882652
111.24969779399714
111.11897166264448
110.98670050305965
110.8528483774212
110.71736598621237
110.58018557068601
110.4412139949112
110.30032112740086
110.15731774315661
110.01191337245461
109.86362635856787
109.71164160982491
109.5542261317325
109.38869611810705
109.22054999836772
109.05268891540865
108.88542185804098
108.71852931872344
108.55150301814261
108.38383908187149
108.21504093194302
108.04461788475291
107.87208521736913
88.2267788171887
88.03489864684087
88.06695158821671
88.0590752813496
88.06119809530887
88.05986481069887
88.06361841103065
88.04363330900149
86.4223319367129
86.40813983998218
86.39412529866283
86.38025212576089
86.36648678447816
86.3527998425172
86.33916686177479
86.32556881176824
86.31199217025541
86.29842887488383
111.25554139357217
111.12481478647003
110.99254318712919
110.85869327452781
110.72321684787327
110.58604749151267
110.4470943957211
110.30623178376334
110.16327912989763
110.01796200956773
109.86983707014579
109.71814377624149
109.56142491665133
109.39810694247352
109.23286372902086
109.06753365858842
108.90226240151493
108.73694645768859
108.57129019491397
108.40489377533017
108.23731215861952
108.06807247631791
107.89668705832221
88.23143531563029
88.05147510362465
88.08044351616134
88.07337587229402
88.07527177871945
88.07405818005905
88.07754688109677
88.05854442194969
86.43558911950453
86.4214832522382
86.40755349622266
86.39375903172858
86.38006280103774
86.36643311332647
86.35284435889311
86.33927707974848
86.32571771734553
86.31215829443263
111.26155139958428
111.13082574593781
110.99855654810297
110.86471280867113
110.72924781096653
110.59209695349672
110.45317255657625
110.3123547697234
110.16947454540409
110.02428019489169
109.87637489614048
109.72508539362222
109.5692816513661
109.40801762156377
109.24527070307408
109.08230487119442
108.91916578477316
108.7557673386296
108.59189073844728
108.4272108252842
108.2613222534181
108.0937590469499
107.92401427438071
88.23234831471022
88.06913022800546
88.09376279428301
88.0878331344197
88.08940936679768
88.08836438658605
88.09148056802975
88.07385854196167
86.44871274696686
86.43473627035232
86.42093297465186
86.4072547895894
86.39365954500178
86.38011268605811
86.36658748563946
86.35306439766192
86.33953019040416
86.3259772235518
111.26772796723793
111.13700440483372
111.00474025677511
110.87090655094285
110.73545830640653
110.59833314475075
110.45944721817956
110.31868791275579
110.17590019059728
110.03086028935171
109.88322590446498
109.73243829575571
109.57767361090488
109.41836418727797
109.25794936331306
109.09728427719978
108.93636807896621
108.77511822343439
108.61335586210014
108.45080226847504
108.28707839631909
108.12170813387421
107.9541366878332
88.22949120963611
88.08787481701532
88.10690559704344
88.10244839233181
88.10361036772196
88.10278388548018
88.1054185735201
88.08957786068623
86.46169720385853
86.447902327883
86.43427475640382
86.42075553631695
86.40729578779215
86.39385817564666
86.38041573161566
86.36694980150413
86.35344822409073
86.33990414114754
111.27407102351901
111.14335052071219
111.01109389001425
110.87727395086226
110.74184761274832
110.60475504860875
110.46591680832643
110.3252285568229
110.18255132464787
110.03769310501012
109.89037352900706
109.74016354130622
109.58650688397215
109.42909470166843
109.27094623136708
109.11257136776516
108.95395687667455
108.79503495728831
108.63566522259632
108.47561640261323
108.31453753614625
108.15192980318
107.98714618339902
88.22282936213892
88.10772288027601
88.1198669585617
88.11722335824355
88.1178741368855
88.11731726837739
88.11935970134655
88.10570531860195
86.47453474589828
86.46098839478317
86.44759729413215
86.43428617691175
86.42099862908398
86.40769637641606
86.39435472575562
86.38095771566006
86.36749540148982
86.35396233004431
111.28058031794686
111.14986373341993
111.01761692580949
110.88381434072669
110.748414865906
110.61136146232141
110.47257948635551
110.33197363058082
110.18942244182925
110.04476830296672
109.89779833970661
109.74821876048921
109.59570567579539
109.44015495059635
109.28424461094389
109.12816547482048
108.97191511999395
108.81545661405822
108.65870277027584
108.50149380279957
108.34355449380932
108.18437613189876
108.02316001893229
88.21231918179893
88.1286918983495
88.13264069861151
88.1321601542014
88.13219986743063
88.13196527682716
88.1333024147531
88.12224475844971
86.48721493764546
86.47400933102942
86.46093237381511
86.44788521879262
86.43480553241908
86.42166189227446
86.4084361507553
86.39511752587264
86.38169967707864
86.36817925803543
111.28725545145777
111.15654356466726
111.02430874002464
110.89052694005271
110.75515907011328
110.61815101959317
110.47943319075812
110.33891973036467
110.19650748663109
110.05207465797531
109.90547885916479
109.75656140178056
109.6052048511062
109.45148615667082
109.29779153930728
109.14400557571396
108.99015159892083
108.83623762884712
108.68224788443936
108.52812880909876
108.37375647650508
108.21885617548355
108.06232756975699
88.19790627882963
88.15080333302349
88.14521927983456
88.14726135368471
88.1465865733998
88.14672882539149
88.14724476321216
88.13920119044164
86.49972367685737
86.48699635615235
86.47434272918206
86.46160930166991
86.44876547703207
86.43579690245397
86.42269701039798
86.40946267354282
86.39609241817085
86.38258560851999
111.2940958949725
111.1633894217608
111.03116860541205
110.89741086018459
110.76207910984431
110.62512221555163
110.48647568897627
110.34606321803767
110.20380006308032
110.05960038373674
109.91339255141492
109.76514991006827
109.61494547490116
109.46302620111582
109.31151346674419
109.15999501571227
109.00852693192174
108.85716959783686
108.70598969596267
108.55506335466127
108.4044812081146
108.25435706610313
91.21486497529918
91.21486497529918
91.21486497529918
91.21486497529918
91.21486497529918
91.21486497529918
91.21486497529918
91.21486497529918
91.21486497529918
91.21486497529918
86.5001036683971
86.4879275809407
86.47553386407951
86.462937451713
86.45014941991523
86.4371780038171
86.42402918402944
86.41070703762153
86.39721394912247
112.32865612851424
112.1997080253826
112.07235014824843
111.94660163905449
111.82249426828933
111.70007259077768
111.57939413304096
111.46052947094236
111.34356191181566
111.2285862201938
111.11570527725762
111.00502262095466
110.89662848275789
110.79058030350825
110.68662054864127
110.58290324092951
110.47942543270727
110.37618309661484
110.27317057792673
110.17037973835413
110.06779858406448
109.96540892195733
91.21486497529918
91.21486497529918
91.21486497529918
91.21486497529918
91.21486497529918
91.21486497529918
91.21486497529918
91.21486497529918
91.21486497529918
91.21486497529918
88.19425666356703
88.17701129176118
88.16022098324842
88.14388027582643
88.12798496116375
88.11253180819583
88.09751840287112
88.08294305180505
88.06880472415044
113.00718794959512
112.87796971574872
112.74951300686804
112.62181060721879
112.49485027246244
112.36861455146301
112.24308054312617
112.1182196241907
111.99399722268097
111.87037278659378
111.74730024781977
111.62472954157923
111.50260984496576
111.38089431728159
111.26031705853137
111.13981525451558
111.01938639091017
110.89902820233333
110.77873881852138
110.65851699365233
110.53836247461835
110.41827663085523
91.21486497529918
91.21486497529918
91.21486497529918
91.21486497529918
91.21486497529918
91.21486497529918
91.21486497529918
91.21486497529918
91.21486497529918
91.21486497529918
88.21582224976291
88.20191028928753
88.18799168008347
88.17406853135064
88.16014251026184
88.14621491765979
88.13228673222149
88.11835863719347
88.10443103661216
113.36612447481623
113.23693734694697
113.10842914527059
112.98060202983798
112.85345956805989
112.72700682831108
112.60125051059835
112.4761991059646
112.35186306613353
112.22825494478629
112.10538943092745
111.9832831232966
111.86195386341402
111.74141967538856
111.62224769962656
111.50319275340794
111.38425617692643
111.26543925743317
111.14674319113963
111.02816902272734
110.90971754744058
110.79138914279288
91.21486497529918
91.21486497529918
91.21486497529918
91.21486497529918
91.21486497529918
91.21486497529918
91.21486497529918
91.21486497529918
91.21486497529918
91.21486497529918
88.21567336073092
88.20091704221883
88.18627306174446
88.17174066187238
88.15731923087505
88.1430082818612
88.1288074404799
88.11471643740671
88.10073510375115
113.56818739441232
113.4389982537884
113.3103998515581
113.18239165698307
113.05497267956858
112.92814143085091
112.80189587041538
112.67623333778322
112.55115047438827
112.42664314518144
112.30270638044479
112.17933437793056
112.05652061473629
111.93425805792039
111.8132299383868
111.69229451494792
111.57145118114406
111.45069933930007
111.33003841022217
111.209467848922
111.08898717041366
110.968595994452
91.21486497529918
91.21486497529918
91.21486497529918
91.21486497529918
91.21486497529918
91.21486497529918
91.21486497529918
91.21486497529918
91.21486497529918
91.21486497529918
88.21567477709877
88.20113904117757
88.18668402170728
88.17230994398659
88.15801698695434
88.1438052889844
88.12967495134012
88.11562604030891
88.10165858851826
113.67625600576781
113.54706545963877
113.41841854864003
113.29031548626007
113.16275656262981
113.03574215838604
112.90927276444563
112.7833490074843
112.6579716802824
112.53314177471835
112.40886051223058
112.28512936124434
112.16195002835528
112.03932442598276
111.91794097096748
111.79665203669826
111.67545781180726
111.55435848378434
111.4333542365705
111.31244524652335
111.19163167566116
111.07091365978891
91.21486497529918
91.21486497529918
91.21486497529918
91.21486497529918
91.21486497529918
91.21486497529918
91.21486497529918
91.21486497529918
91.21486497529918
91.21486497529918
88.21569490998209
88.20110136023568
88.18659695759591
88.17218160737686
88.15785522925698
88.14361775565249
88.12946913073445
88.11540930981393
88.10143825895909
113.72912883851784
113.59993862209755
113.47127085407661
113.34312557503588
113.21550277766057
113.08840240178797
112.96182432727822
112.83576836467002
112.71023424373499
112.58522160041308
112.46072996344063
112.33675874350998
112.21330722861885
112.09037458480802
111.96866649197331
111.8470495108905
111.72552356365148
111.60408857187562
111.48274445731558
111.36149114292967
111.24032855473375
111.11925662512014
91.21486497529918
91.21486497529918
91.21486497529918
91.21486497529918
91.21486497529918
91.21486497529918
91.21486497529918
91.21486497529918
91.21486497529918
91.21486497529918
88.21568476019463
88.20110664634794
88.18661538883595
88.17221099585365
88.15789347081564
88.14366281284553
88.12951901707639
88.11546207484125
88.10149197379322
113.74491389703375
113.61572339712481
113.48704829107822
113.35888867422815
113.23124463651777
113.10411626535551
112.97750364975701
112.85140688583442
112.72582608363405
112.60076137515154
112.47621292294855
112.35218092803423
112.22866563525116
112.10566733660589
111.98389356162832
111.86221096874353
111.7406195970321
111.61911948578962
111.49771067426151
111.37639320114486
111.25516710369942
111.13403241612383
91.21486497529918
91.21486497529918
91.21486497529918
91.21486497529918
91.21486497529918
91.21486497529918
91.21486497529918
91.21486497529918
91.21486497529918
91.21486497529918
88.21568937225638
88.20110621826356
88.1866106829486
88.17220273461719
88.15788234411461
88.14364948457046
88.1295041312399
88.11544626140224
88.10147585429624
113.72912883851754
113.5999386220972
113.4712708540762
113.34312557503537
113.21550277765986
113.088402401787
112.96182432727704
112.83576836466871
112.71023424373355
112.5852216004114
112.46072996343864
112.33675874350763
112.21330722861613
112.09037458480492
111.96866649196983
111.84704951088666
111.72552356364737
111.60408857187122
111.48274445731091
111.36149114292482
111.2403285547288
111.11925662511513
91.21486497529918
91.21486497529918
91.21486497529918
91.21486497529918
91.21486497529918
91.21486497529918
91.21486497529918
91.21486497529918
91.21486497529918
91.21486497529918
88.21568476018606
88.20110664633935
88.18661538882738
88.17221099584505
88.157893470807
88.14366281283684
88.12951901706765
88.1154620748325
88.10149197378446
113.67625600577287
113.54706545964383
113.41841854864512
113.29031548626523
113.16275656263507
113.03574215839141
112.90927276445103
112.78334900748968
112.6579716802877
112.53314177472367
112.40886051223602
112.28512936124993
112.161950028361
112.03932442598872
111.91794097097367
111.79665203670464
111.67545781181383
111.55435848379113
111.4333542365774
111.31244524653033
111.1916316756681
111.07091365979583
91.21486497529918
91.21486497529918
91.21486497529918
91.21486497529918
91.21486497529918
91.21486497529918
91.21486497529918
91.21486497529918
91.21486497529918
91.21486497529918
88.21569490995537
88.20110136020885
88.18659695756894
88.17218160734973
88.15785522922971
88.1436177556251
88.129469130707
88.11540930978643
88.10143825893161
113.56818739442038
113.43899825379648
113.3103998515663
113.18239165699134
113.05497267957682
112.92814143085901
112.80189587042344
112.67623333779125
112.5511504743962
112.42664314518916
112.30270638045216
112.17933437793754
112.05652061474287
111.93425805792651
111.81322993839255
111.69229451495339
111.57145118114936
111.45069933930523
111.33003841022722
111.2094678489269
111.08898717041852
110.96859599445679
91.21486497529918
91.21486497529918
91.21486497529918
91.21486497529918
91.21486497529918
91.21486497529918
91.21486497529918
91.21486497529918
91.21486497529918
91.21486497529918
88.21567477709684
88.20113904117564
88.18668402170537
88.17230994398471
88.15801698695252
88.14380528898268
88.12967495133844
88.11562604030719
88.10165858851654
113.3661244748352
113.23693734696592
113.1084291452895
112.98060202985681
112.85345956807865
112.7270068283298
112.60125051061699
112.47619910598317
112.3518630661521
112.22825494480493
112.10538943094618
111.9832831233154
111.86195386343284
111.74141967540741
111.62224769964538
111.50319275342677
111.38425617694516
111.26543925745167
111.14674319115802
111.02816902274559
110.9097175474586
110.79138914281073
91.21486497529918
91.21486497529918
91.21486497529918
91.21486497529918
91.21486497529918
91.21486497529918
91.21486497529918
91.21486497529918
91.21486497529918
91.21486497529918
88.21567336072683
88.20091704221471
88.1862730617403
88.17174066186821
88.15731923087087
88.14300828185699
88.12880744047567
88.11471643740249
88.10073510374694
113.00718794961902
112.87796971577266
112.74951300689207
112.62181060724294
112.49485027248673
112.36861455148741
112.24308054315073
112.11821962421537
111.99399722270574
111.87037278661862
111.74730024784469
111.62472954160427
111.502609844991
111.38089431730705
111.26031705855712
111.13981525454156
111.01938639093639
110.89902820235982
110.77873881854804
110.65851699367911
110.53836247464521
110.41827663088209
91.21486497529918
91.21486497529918
91.21486497529918
91.21486497529918
91.21486497529918
91.21486497529918
91.21486497529918
91.21486497529918
91.21486497529918
91.21486497529918
88.2158222497454
88.20191028926989
88.18799168006575
88.17406853133282
88.160142510244
88.14621491764197
88.13228673220371
88.11835863717573
88.10443103659446
112.32865612852022
112.1997080253886
112.07235014825444
111.94660163906055
111.82249426829536
111.70007259078365
111.57939413304685
111.46052947094815
111.3435619118214
111.22858622019955
111.1157052772634
111.00502262096045
110.89662848276365
110.79058030351398
110.6866205486469
110.58290324093511
110.47942543271282
110.37618309662022
110.27317057793208
110.17037973835942
110.06779858406964
109.96540892196239
91.21486497529918
91.21486497529918
91.21486497529918
91.21486497529918
91.21486497529918
91.21486497529918
91.21486497529918
91.21486497529918
91.21486497529918
91.21486497529918
88.19425666356867
88.17701129176281
88.16022098325003
88.14388027582805
88.12798496116531
88.11253180819729
88.09751840287251
88.08294305180637
88.06880472415173
111.29409589497304
111.16338942176131
111.0311686054125
110.89741086018495
110.76207910984463
110.625122215552
110.48647568897677
110.34606321803825
110.20380006308103
110.05960038373757
109.91339255141584
109.76514991006928
109.6149454749023
109.46302620111699
109.31151346674548
109.15999501571365
109.00852693192321
108.85716959783855
108.7059896959644
108.55506335466309
108.40448120811647
108.25435706610506
91.21486497529918
91.21486497529918
91.21486497529918
91.21486497529918
91.21486497529918
91.21486497529918
91.21486497529918
91.21486497529918
91.21486497529918
91.21486497529918
86.500103668384
86.48792758092769
86.47553386406659
86.46293745170011
86.4501494199024
86.43717800380432
86.42402918401675
86.41070703760889
86.39721394910981
111.28725545145842
111.15654356466784
111.02430874002513
110.89052694005301
110.75515907011366
110.61815101959344
110.47943319075866
110.33891973036532
110.19650748663184
110.05207465797628
109.9054788591657
109.75656140178175
109.60520485110744
109.45148615667209
109.2977915393086
109.14400557571537
108.99015159892231
108.83623762884872
108.68224788444108
108.52812880910052
108.3737564765069
108.21885617548547
108.06232756975893
88.19790627883997
88.15080333306095
88.14521927984853
88.14726135369817
88.14658657345173
88.14672882540354
88.14724476321025
88.13920119044404
86.49972367684418
86.48699635613913
86.47434272916891
86.46160930165692
86.44876547701917
86.43579690244106
86.42269701038511
86.40946267352997
86.39609241815796
86.38258560850714
111.28058031794761
111.14986373342053
111.01761692580999
110.883814340727
110.74841486590627
110.61136146232174
110.47257948635594
110.3319736305816
110.18942244183002
110.04476830296765
109.89779833970759
109.74821876049037
109.59570567579678
109.44015495059772
109.28424461094521
109.12816547482194
108.97191511999543
108.81545661405981
108.65870277027743
108.50149380280122
108.34355449381108
108.18437613190055
108.02316001893423
88.21231918180939
88.12869189838715
88.1326406986254
88.13216015421503
88.13219986748273
88.13196527683927
88.1333024147512
88.12224475845196
86.48721493763216
86.47400933101613
86.46093237380194
86.44788521877946
86.43480553240595
86.42166189226135
86.4084361507423
86.39511752585958
86.38169967706557
86.36817925802235
111.2740710235198
111.14335052071279
111.01109389001475
110.87727395086264
110.7418476127487
110.60475504860905
110.46591680832682
110.32522855682376
110.18255132464871
110.03769310501117
109.89037352900803
109.7401635413075
109.58650688397356
109.42909470166987
109.27094623136847