# vtk DataFile Version 2.0
Niestacjonarne zagadnienie cieplne - ogrzewanie wody w garnku stalowym
ASCII
DATASET UNSTRUCTURED_GRID
POINTS 1353 float
0.0 0.0 0.0
0.0 3.846153846153846E-4 0.0
0.0 7.692307692307692E-4 0.0
0.0 0.0011538461538461537 0.0
0.0 0.0015384615384615385 0.0
0.0 0.0019230769230769232 0.0
0.0 0.0023076923076923075 0.0
0.0 0.002692307692307692 0.0
0.0 0.003076923076923077 0.0
0.0 0.0034615384615384616 0.0
0.0 0.0038461538461538464 0.0
0.0 0.004230769230769231 0.0
0.0 0.004615384615384615 0.0
0.0 0.005 0.0
0.0 0.005111111111111111 0.0
0.0 0.005222222222222223 0.0
0.0 0.005333333333333333 0.0
0.0 0.0054444444444444445 0.0
0.0 0.005555555555555556 0.0
0.0 0.005666666666666667 0.0
0.0 0.0057777777777777775 0.0
0.0 0.005888888888888889 0.0
0.0 0.006 0.0
0.0 0.01711111111111111 0.0
0.0 0.028222222222222225 0.0
0.0 0.03933333333333333 0.0
0.0 0.050444444444444445 0.0
0.0 0.06155555555555556 0.0
0.0 0.07266666666666667 0.0
0.0 0.08377777777777778 0.0
0.0 0.0948888888888889 0.0
0.0 0.10600000000000001 0.0
0.0 0.10611111111111113 0.0
0.0 0.10622222222222223 0.0
0.0 0.10633333333333335 0.0
0.0 0.10644444444444445 0.0
0.0 0.10655555555555557 0.0
0.0 0.10666666666666667 0.0
0.0 0.10677777777777779 0.0
0.0 0.1068888888888889 0.0
0.0 0.10700000000000001 0.0
1.1111111111111112E-4 0.0 0.0
1.1111111111111112E-4 3.846153846153846E-4 0.0
1.1111111111111112E-4 7.692307692307692E-4 0.0
1.1111111111111112E-4 0.0011538461538461537 0.0
1.1111111111111112E-4 0.0015384615384615385 0.0
1.1111111111111112E-4 0.0019230769230769232 0.0
1.1111111111111112E-4 0.0023076923076923075 0.0
1.1111111111111112E-4 0.002692307692307692 0.0
1.1111111111111112E-4 0.003076923076923077 0.0
1.1111111111111112E-4 0.0034615384615384616 0.0
1.1111111111111112E-4 0.0038461538461538464 0.0
1.1111111111111112E-4 0.004230769230769231 0.0
1.1111111111111112E-4 0.004615384615384615 0.0
1.1111111111111112E-4 0.005 0.0
1.1111111111111112E-4 0.005111111111111111 0.0
1.1111111111111112E-4 0.005222222222222223 0.0
1.1111111111111112E-4 0.005333333333333333 0.0
1.1111111111111112E-4 0.0054444444444444445 0.0
1.1111111111111112E-4 0.005555555555555556 0.0
1.1111111111111112E-4 0.005666666666666667 0.0
1.1111111111111112E-4 0.0057777777777777775 0.0
1.1111111111111112E-4 0.005888888888888889 0.0
1.1111111111111112E-4 0.006 0.0
1.1111111111111112E-4 0.01711111111111111 0.0
1.1111111111111112E-4 0.028222222222222225 0.0
1.1111111111111112E-4 0.03933333333333333 0.0
1.1111111111111112E-4 0.050444444444444445 0.0
1.1111111111111112E-4 0.06155555555555556 0.0
1.1111111111111112E-4 0.07266666666666667 0.0
1.1111111111111112E-4 0.08377777777777778 0.0
1.1111111111111112E-4 0.0948888888888889 0.0
1.1111111111111112E-4 0.10600000000000001 0.0
1.1111111111111112E-4 0.10611111111111113 0.0
1.1111111111111112E-4 0.10622222222222223 0.0
1.1111111111111112E-4 0.10633333333333335 0.0
1.1111111111111112E-4 0.10644444444444445 0.0
1.1111111111111112E-4 0.10655555555555557 0.0
1.1111111111111112E-4 0.10666666666666667 0.0
1.1111111111111112E-4 0.10677777777777779 0.0
1.1111111111111112E-4 0.1068888888888889 0.0
1.1111111111111112E-4 0.10700000000000001 0.0
2.2222222222222223E-4 0.0 0.0
2.2222222222222223E-4 3.846153846153846E-4 0.0
2.2222222222222223E-4 7.692307692307692E-4 0.0
2.2222222222222223E-4 0.0011538461538461537 0.0
2.2222222222222223E-4 0.0015384615384615385 0.0
2.2222222222222223E-4 0.0019230769230769232 0.0
2.2222222222222223E-4 0.0023076923076923075 0.0
2.2222222222222223E-4 0.002692307692307692 0.0
2.2222222222222223E-4 0.003076923076923077 0.0
2.2222222222222223E-4 0.0034615384615384616 0.0
2.2222222222222223E-4 0.0038461538461538464 0.0
2.2222222222222223E-4 0.004230769230769231 0.0
2.2222222222222223E-4 0.004615384615384615 0.0
2.2222222222222223E-4 0.005 0.0
2.2222222222222223E-4 0.005111111111111111 0.0
2.2222222222222223E-4 0.005222222222222223 0.0
2.2222222222222223E-4 0.005333333333333333 0.0
2.2222222222222223E-4 0.0054444444444444445 0.0
2.2222222222222223E-4 0.005555555555555556 0.0
2.2222222222222223E-4 0.005666666666666667 0.0
2.2222222222222223E-4 0.0057777777777777775 0.0
2.2222222222222223E-4 0.005888888888888889 0.0
2.2222222222222223E-4 0.006 0.0
2.2222222222222223E-4 0.01711111111111111 0.0
2.2222222222222223E-4 0.028222222222222225 0.0
2.2222222222222223E-4 0.03933333333333333 0.0
2.2222222222222223E-4 0.050444444444444445 0.0
2.2222222222222223E-4 0.06155555555555556 0.0
2.2222222222222223E-4 0.07266666666666667 0.0
2.2222222222222223E-4 0.08377777777777778 0.0
2.2222222222222223E-4 0.0948888888888889 0.0
2.2222222222222223E-4 0.10600000000000001 0.0
2.2222222222222223E-4 0.10611111111111113 0.0
2.2222222222222223E-4 0.10622222222222223 0.0
2.2222222222222223E-4 0.10633333333333335 0.0
2.2222222222222223E-4 0.10644444444444445 0.0
2.2222222222222223E-4 0.10655555555555557 0.0
2.2222222222222223E-4 0.10666666666666667 0.0
2.2222222222222223E-4 0.10677777777777779 0.0
2.2222222222222223E-4 0.1068888888888889 0.0
2.2222222222222223E-4 0.10700000000000001 0.0
3.333333333333334E-4 0.0 0.0
3.333333333333334E-4 3.846153846153846E-4 0.0
3.333333333333334E-4 7.692307692307692E-4 0.0
3.333333333333334E-4 0.0011538461538461537 0.0
3.333333333333334E-4 0.0015384615384615385 0.0
3.333333333333334E-4 0.0019230769230769232 0.0
3.333333333333334E-4 0.0023076923076923075 0.0
3.333333333333334E-4 0.002692307692307692 0.0
3.333333333333334E-4 0.003076923076923077 0.0
3.333333333333334E-4 0.0034615384615384616 0.0
3.333333333333334E-4 0.0038461538461538464 0.0
3.333333333333334E-4 0.004230769230769231 0.0
3.333333333333334E-4 0.004615384615384615 0.0
3.333333333333334E-4 0.005 0.0
3.333333333333334E-4 0.005111111111111111 0.0
3.333333333333334E-4 0.005222222222222223 0.0
3.333333333333334E-4 0.005333333333333333 0.0
3.333333333333334E-4 0.0054444444444444445 0.0
3.333333333333334E-4 0.005555555555555556 0.0
3.333333333333334E-4 0.005666666666666667 0.0
3.333333333333334E-4 0.0057777777777777775 0.0
3.333333333333334E-4 0.005888888888888889 0.0
3.333333333333334E-4 0.006 0.0
3.333333333333334E-4 0.01711111111111111 0.0
3.333333333333334E-4 0.028222222222222225 0.0
3.333333333333334E-4 0.03933333333333333 0.0
3.333333333333334E-4 0.050444444444444445 0.0
3.333333333333334E-4 0.06155555555555556 0.0
3.333333333333334E-4 0.07266666666666667 0.0
3.333333333333334E-4 0.08377777777777778 0.0
3.333333333333334E-4 0.0948888888888889 0.0
3.333333333333334E-4 0.10600000000000001 0.0
3.333333333333334E-4 0.10611111111111113 0.0
3.333333333333334E-4 0.10622222222222223 0.0
3.333333333333334E-4 0.10633333333333335 0.0
3.333333333333334E-4 0.10644444444444445 0.0
3.333333333333334E-4 0.10655555555555557 0.0
3.333333333333334E-4 0.10666666666666667 0.0
3.333333333333334E-4 0.10677777777777779 0.0
3.333333333333334E-4 0.1068888888888889 0.0
3.333333333333334E-4 0.10700000000000001 0.0
4.4444444444444447E-4 0.0 0.0
4.4444444444444447E-4 3.846153846153846E-4 0.0
4.4444444444444447E-4 7.692307692307692E-4 0.0
4.4444444444444447E-4 0.0011538461538461537 0.0
4.4444444444444447E-4 0.0015384615384615385 0.0
4.4444444444444447E-4 0.0019230769230769232 0.0
4.4444444444444447E-4 0.0023076923076923075 0.0
4.4444444444444447E-4 0.002692307692307692 0.0
4.4444444444444447E-4 0.003076923076923077 0.0
4.4444444444444447E-4 0.0034615384615384616 0.0
4.4444444444444447E-4 0.0038461538461538464 0.0
4.4444444444444447E-4 0.004230769230769231 0.0
4.4444444444444447E-4 0.004615384615384615 0.0
4.4444444444444447E-4 0.005 0.0
4.4444444444444447E-4 0.005111111111111111 0.0
4.4444444444444447E-4 0.005222222222222223 0.0
4.4444444444444447E-4 0.005333333333333333 0.0
4.4444444444444447E-4 0.0054444444444444445 0.0
4.4444444444444447E-4 0.005555555555555556 0.0
4.4444444444444447E-4 0.005666666666666667 0.0
4.4444444444444447E-4 0.0057777777777777775 0.0
4.4444444444444447E-4 0.005888888888888889 0.0
4.4444444444444447E-4 0.006 0.0
4.4444444444444447E-4 0.01711111111111111 0.0
4.4444444444444447E-4 0.028222222222222225 0.0
4.4444444444444447E-4 0.03933333333333333 0.0
4.4444444444444447E-4 0.050444444444444445 0.0
4.4444444444444447E-4 0.06155555555555556 0.0
4.4444444444444447E-4 0.07266666666666667 0.0
4.4444444444444447E-4 0.08377777777777778 0.0
4.4444444444444447E-4 0.0948888888888889 0.0
4.4444444444444447E-4 0.10600000000000001 0.0
4.4444444444444447E-4 0.10611111111111113 0.0
4.4444444444444447E-4 0.10622222222222223 0.0
4.4444444444444447E-4 0.10633333333333335 0.0
4.4444444444444447E-4 0.10644444444444445 0.0
4.4444444444444447E-4 0.10655555555555557 0.0
4.4444444444444447E-4 0.10666666666666667 0.0
4.4444444444444447E-4 0.10677777777777779 0.0
4.4444444444444447E-4 0.1068888888888889 0.0
4.4444444444444447E-4 0.10700000000000001 0.0
5.555555555555556E-4 0.0 0.0
5.555555555555556E-4 3.846153846153846E-4 0.0
5.555555555555556E-4 7.692307692307692E-4 0.0
5.555555555555556E-4 0.0011538461538461537 0.0
5.555555555555556E-4 0.0015384615384615385 0.0
5.555555555555556E-4 0.0019230769230769232 0.0
5.555555555555556E-4 0.0023076923076923075 0.0
5.555555555555556E-4 0.002692307692307692 0.0
5.555555555555556E-4 0.003076923076923077 0.0
5.555555555555556E-4 0.0034615384615384616 0.0
5.555555555555556E-4 0.0038461538461538464 0.0
5.555555555555556E-4 0.004230769230769231 0.0
5.555555555555556E-4 0.004615384615384615 0.0
5.555555555555556E-4 0.005 0.0
5.555555555555556E-4 0.005111111111111111 0.0
5.555555555555556E-4 0.005222222222222223 0.0
5.555555555555556E-4 0.005333333333333333 0.0
5.555555555555556E-4 0.0054444444444444445 0.0
5.555555555555556E-4 0.005555555555555556 0.0
5.555555555555556E-4 0.005666666666666667 0.0
5.555555555555556E-4 0.0057777777777777775 0.0
5.555555555555556E-4 0.005888888888888889 0.0
5.555555555555556E-4 0.006 0.0
5.555555555555556E-4 0.01711111111111111 0.0
5.555555555555556E-4 0.028222222222222225 0.0
5.555555555555556E-4 0.03933333333333333 0.0
5.555555555555556E-4 0.050444444444444445 0.0
5.555555555555556E-4 0.06155555555555556 0.0
[...]
POINT_DATA 1353
SCALARS Temperatura float 1
LOOKUP_TABLE default
23.859213907809323
23.713370855215146
23.571746680152234
23.434312537946365
23.301037580298058
23.17188233055282
23.04679611599782
22.92571342178151
22.80854769902396
22.695179438513012
22.585433675731768
22.479031659817945
22.37551252202295
22.27394905273794
22.173867129307798
22.074450403140723
21.97536248236439
21.876397677251145
21.777346694139826
21.677991040484674
21.578100590574408
21.477435629803807
21.37575171580545
10.454806800939247
10.537586873515812
10.559589601691625
10.554247875838275
10.555490440481059
10.555284518620013
10.554835469284193
10.555434457655393
10.729747417080453
10.73152186885532
10.73328903575577
10.735056179897484
10.736830115074788
10.738616923137798
10.740421748318997
10.742248666675737
10.744100615262587
10.745979360737882
23.85947827712674
23.7136285456283
23.571996757684246
23.434555478496893
23.30127386031436
23.172112559253364
23.04702103426751
22.92593401671116
22.808765380259754
22.695396614458225
22.585653965327065
22.47926451159833
22.375763547713163
22.274297090307645
22.174491179447973
22.075154911650205
21.976145485088544
21.877260791461673
21.778295654185875
21.679032127197267
21.579238922563047
21.478673719149462
21.377088390479535
10.451828310725736
10.53596067413181
10.557607691445618
10.552358571095048
10.553577289905093
10.553376376010425
10.552930760213401
10.553510589109235
10.727884354542592
10.72965542453671
10.731419264039213
10.733183315746754
10.734954539104812
10.736739119141532
10.738542263314363
10.740368080102332
10.742219519507424
10.744098351581215
23.859813074681337
23.713959384686945
23.572321812569484
23.43487542790114
23.30158969640028
23.17242560317765
23.047333023539778
22.926247401614035
22.809083964167073
22.69572679428703
22.586007358791644
22.479663089747643
22.37624822112431
22.274988112391345
22.17547872720829
22.076425641360146
21.977682735988708
21.879076431332503
21.780408875584698
21.681463584519904
21.582005671887
21.481784775424412
21.380541242492253
10.446794432779514
10.534953121016295
10.555522748129823
10.550554063530784
10.551700596920279
10.551514828099629
10.551079706776575
10.551601747128837
10.72608683149547
10.727846824311303
10.729599772373147
10.731353676437937
10.733115937404074
10.734893043339993
10.736690378388884
10.738512134041294
10.740361287409367
10.742239611352192
23.860219411157054
23.7143633471097
23.572721823432808
23.435272329571074
23.301985007893435
23.172821350191487
23.04773191496308
22.92665331079394
22.809502959750198
22.696169183479316
22.586491949975873
22.4802249434098
22.376958384430793
22.27599804697001
22.17689443406139
22.078262475868147
21.979960209338397
21.88182373503083
21.78366431733082
21.6852670466309
21.586390815848443
21.486770924978988
21.386126528168592
10.439698425233539
10.534566913382141
10.553333825551295
10.548834677071154
10.549860274743489
10.549699897136746
10.549282360962803
10.549707793623808
10.724355292695817
10.726095866115047
10.727829779769074
10.729566032873882
10.731312783854627
10.733077005893472
10.734864334613931
10.73667905351681
10.738524147923748
10.740401372773217
23.860697924853103
23.714840523070023
23.57319672881073
23.435746088442066
23.302459657838014
23.17329961144866
23.048217430092777
22.927151297485537
22.81002159220012
22.696722379492122
22.587104960090485
22.48094528611003
22.37788111135033
22.27730763793354
22.178726956244542
22.08065040805705
21.982946283627353
21.885462405347774
21.788019702191026
21.69040624341795
21.59237279487802
21.493632979811295
21.39387163330788
10.430529169579275
10.534806511862888
10.551039347460039
10.547200943981409
10.548056172821978
10.547931613718639
10.547538804029617
10.547828489377476
10.722690496486592
10.72440211855426
10.726107815317494
10.727818148583895
10.729542375005302
10.731288081011014
10.73306114146044
10.734865859345378
10.736705150843136
10.738580699202544
23.861248990588308
23.715391002055288
23.57374644589242
23.436296566261174
23.30301345474487
23.173860124493608
23.048789185571096
22.927740750552786
22.810638812904443
22.697384458048674
22.587842768139932
22.481817093199236
22.37900116501258
22.2788928117603
22.180945109707718
22.083547754203707
21.986586232636412
21.889926196388256
21.793404454167327
21.696817614326843
21.59990984954871
21.502365502919364
21.403816065251114
10.419270894921093
10.535678216441482
10.548637085285215
10.54565361134139
10.546288075240069
10.546210016503169
10.545849149663386
10.54596348225777
10.721093558339316
10.722764741352378
10.724431403708646
10.72610645209791
10.727800576664587
10.729521954306199
10.73127651029745
10.733068359285097
10.734900189512494
10.736773517255061
23.86187281768705
23.716014831444877
23.57437086683309
23.43692358203955
23.303646153650366
23.174502557244388
23.049446701032643
22.928420911890033
22.81135332681575
22.698153061277
22.588700950898488
22.482831660593746
22.38030120220939
22.2807236814896
22.183503411869925
22.086891778688234
21.990798692674634
21.895116255623808
21.79970831923205
21.70439430524352
21.608923041647277
21.512946223685123
21.416013151270853
10.405902708690318
10.537190297886418
10.546124120935458
10.544193651686031
10.544555698090981
10.54453515167186
10.544213549197371
10.544112287541802
10.719566023502802
10.721182086585582
10.722796429379864
10.724425455173455
10.726081441473207
10.727772739699379
10.72950480235391
10.731281171558614
10.733104062036707
10.734974689305908
23.862569499572228
23.716712003646332
23.57506985155465
23.437626912438937
23.30435745769487
23.175226512695893
23.05018940912154
22.92919089605347
22.81216363267387
22.699025478632628
22.58967441936469
22.4839790643092
22.381762023840064
22.28276500278768
22.18634446873587
22.090600821118443
21.995475271694445
21.90089596646478
21.806768645344928
21.71295963299067
21.61926195238792
21.525310613132593
21.430532972979204
10.390397791381831
10.53935322100001
10.543496784367324
10.54282228055469
10.542858685175029
10.542907071944605
10.54263220031407
10.542274254865314
10.718109989213412
10.719650716441928
10.72119582014014
10.722766766808668
10.724376770893064
10.726032842556563
10.727739045833863
10.729497815867305
10.731310594802038
10.733178146102116
23.863339041311857
23.71748245405487
23.57584322194489
23.43840629156478
23.305147020131603
23.176031534294143
23.051016666871462
22.930049712834464
22.813068069242046
22.69999873480489
22.5907576014545
22.485248560710154
22.38336302661159
22.28497730176564
22.189401309626223
22.094577179308853
22.000482721340017
21.907090363421425
21.81436221616106
21.722239808222643
21.63061922174104
21.539285730101902
21.44746781272077
10.372721912532361
10.542180051766621
10.540750541196577
10.54154098752764
10.5411966005016
10.541325834641764
10.541105362768441
10.54044850818742
10.716728327242455
10.718162733269331
10.719616292822614
10.721118071197496
10.722675858170486
10.724293004842862
10.725971091374944
10.72771090716106
10.729512848030613
10.731377094747321
23.864181376708643
23.7183260630128
23.576690758070985
23.439261410487195
23.30601444657441
23.17691711180668
23.051927768039654
22.930996292000057
22.814064864948776
22.70106968629648
22.591944643030743
22.48662896779824
22.385082818063644
22.28731847962918
22.192600625065428
22.09871196445586
22.00566927893908
21.913493435400284
21.822211189850137
21.73185763699858
21.64247987211882
21.55414319479401
10.727068902628275
10.727068902628275
10.727068902628275
10.727068902628275
10.727068902628275
10.727068902628275
10.727068902628275
10.727068902628275
10.727068902628275
10.727068902628275
10.716688948959606
10.718036316907655
10.719462936610771
10.720965791264925
10.722542674779758
10.724191960026001
10.7259124714763
10.727703409454595
10.729564304718526
24.11960785747218
23.97450421919539
23.835025485537162
23.701177601086705
23.57296983932291
23.450414977107847
23.333529520538477
23.22233394401081
23.116852865564212
23.017115015310797
22.92315271677634
22.835000325488494
22.75269054496899
22.676246499275308
22.603786278192082
22.53231736521728
22.461834877387993
22.392332811564266
22.323803557624046
22.256237236666113
22.18962071177147
22.1239359138926
10.727068902628275
10.727068902628275
10.727068902628275
10.727068902628275
10.727068902628275
10.727068902628275
10.727068902628275
10.727068902628275
10.727068902628275
10.727068902628275
10.534858628692698
10.536717216400652
10.538583692870834
10.540459010219347
10.542343879089884
10.544238831432065
10.546144255113246
10.548060414548429
10.549987463072998
24.261419351204047
24.116197790338244
23.976302882172345
23.841728723453798
23.712464832014184
23.58849617665398
23.469803156502145
23.356361539261837
23.248142377879
23.145111942941654
23.047231745383606
22.954458799529167
22.86674642076418
22.784046139072306
22.704899144076688
22.626671526344055
22.549357227462288
22.472950399554044
22.397445536056424
22.322837649791655
22.249122539384125
22.176297240111953
10.727068902628275
10.727068902628275
10.727068902628275
10.727068902628275
10.727068902628275
10.727068902628275
10.727068902628275
10.727068902628275
10.727068902628275
10.727068902628275
10.534085734817266
10.535603848862682
10.537177993819514
10.538807837073133
10.540493121474203
10.542233648199778
10.544029267220752
10.545879871563718
10.547785393826667
24.311813921118805
24.1666056946359
24.026731398271682
23.892189271972573
23.76297580551533
23.639085888834035
23.520512973217237
23.407249241731744
23.299285784674655
23.196612771184245
23.09921959810726
23.007094976669958
22.92022687794305
22.838602179152282
22.760661458707407
22.683667419838276
22.607616063837146
22.532503273147327
22.458324777652813
22.385076108121208
22.31275252574429
22.24134890194502
10.727068902628275
10.727068902628275
10.727068902628275
10.727068902628275
10.727068902628275
10.727068902628275
10.727068902628275
10.727068902628275
10.727068902628275
10.727068902628275
10.53425554864476
10.535862397454746
10.537512513465291
10.53920599402489
10.540942913191047
10.542723326340123
10.544547272717702
10.546414776953926
10.54832584995843
24.332690073163047
24.187480847224
24.04759455119566
23.913028221939808
23.783776310292787
23.659830772954002
23.54118114748813
23.427814610848365
23.3197160224104
23.2168679536712
23.119250709401342
23.026842350564422
22.939618740087703
22.857553654201055
22.77912566927738
22.701636344393094
22.62508068369237
22.54945365109453
22.474750179878374
22.40096518567951
22.32809358587919
22.256130332331324
10.727068902628275
10.727068902628275
10.727068902628275
10.727068902628275
10.727068902628275
10.727068902628275
10.727068902628275
10.727068902628275
10.727068902628275
10.727068902628275
10.534249119643619
10.535832926340044
10.537463372796553
10.539140418758084
10.540864030801883
10.542634181008216
10.544450846187411
10.546314007387684
10.548223649572149
24.340396518839363
24.195186713228967
24.055295608438257
23.920720564240767
23.791456584534057
23.66749643231084
23.548830738516887
23.43544810504041
23.32733520193681
23.224476858693002
23.126856148633795
23.034454464075594
22.947251576885087
22.865225673145932
22.78684856162188
22.709412930004902
22.632914159820896
22.5573475744063
22.48270843722227
22.40899194918415
22.33619324420095
22.2643073810489
10.727068902628275
10.727068902628275
10.727068902628275
10.727068902628275
10.727068902628275
10.727068902628275
10.727068902628275
10.727068902628275
10.727068902628275
10.727068902628275
10.534247268563252
10.535837109099669
10.53747269097348
10.539154016708162
10.540881086606953
10.542653899052599
10.54447245065363
10.546336736311517
10.548246749238915
24.343206882603187
24.197997245570065
24.058105462062844
23.923528811534517
23.794262158922564
23.67029806128812
23.55162686444342
23.438236789702806
23.330114010899084
23.227242721860016
23.129605194708144
23.037181829748228
22.94995119853257
22.8678900834049
22.789473505397357
22.711997705379172
22.63545793135749
22.55984937702416
22.485167183007196
22.411406438345818
22.33856218242059
22.26662940787699
10.727068902628275
10.727068902628275
10.727068902628275
10.727068902628275
10.727068902628275
10.727068902628275
10.727068902628275
10.727068902628275
10.727068902628275
10.727068902628275
10.534248289860434
10.535836519596295
10.537470734755738
10.539150924571652
10.540877078798236
10.542649187554696
10.544467241211626
10.546331230298692
10.548241145424996
24.343896149375816
24.198686399213038
24.058793999793895
23.92421625384876
23.794948067349118
23.67098205960639
23.55230866499901
23.438916226570548
23.330791081723685
23.22791764019397
23.130278454388613
23.037854281960325
22.95062414005413
22.868565349782582
22.790152325445728
22.7126803855781
22.63614483266952
22.560540914021907
22.485863822084422
22.41210869460673
22.33927061449446
22.267344609097673
10.727068902628275
10.727068902628275
10.727068902628275
10.727068902628275
10.727068902628275
10.727068902628275
10.727068902628275
10.727068902628275
10.727068902628275
10.727068902628275
10.534247809229331
10.535836564931762
10.537471224834228
10.539151783181707
10.540878233727618
10.542650569734418
10.544468783950427
10.546332868573582
10.548242815206459
24.343206882602928
24.1979972455698
24.058105462062567
23.92352881153422
23.794262158922223
23.67029806128772
23.55162686444298
23.438236789702337
23.330114010898594
23.22724272185948
23.129605194707544
23.03718182974756
22.949951198531828
22.86789008340408
22.78947350539646
22.711997705378206
22.63545793135647
22.559849377023085
22.48516718300607
22.411406438344663
22.33856218241942
22.266629407875804
10.727068902628275
10.727068902628275
10.727068902628275
10.727068902628275
10.727068902628275
10.727068902628275
10.727068902628275
10.727068902628275
10.727068902628275
10.727068902628275
10.534248289859471
10.535836519595332
10.537470734754775
10.539150924570686
10.540877078797266
10.542649187553717
10.54446724121064
10.546331230297707
10.54824114542401
24.340396518839786
24.195186713229393
24.055295608438687
23.920720564241215
23.791456584534526
23.66749643231134
23.548830738517392
23.435448105040912
23.327335201937295
23.224476858693496
23.126856148634317
23.03445446407615
22.947251576885677
22.865225673146572
22.786848561622563
22.70941293000562
22.632914159821652
22.557347574407107
22.482708437223106
22.408991949184998
22.33619324420179
22.264307381049747
10.727068902628275
10.727068902628275
10.727068902628275
10.727068902628275
10.727068902628275
10.727068902628275
10.727068902628275
10.727068902628275
10.727068902628275
10.727068902628275
10.534247268560158
10.53583710909656
10.537472690970352
10.539154016705016
10.540881086603788
10.542653899049423
10.544472450650446
10.546336736308328
10.548246749235727
24.332690073163693
24.18748084722465
24.047594551196337
23.913028221940497
23.78377631029347
23.659830772954656
23.541181147488775
23.427814610849005
23.319716022411022
23.21686795367178
23.119250709401854
23.02684235056486
22.939618740088058
22.85755365420133
22.77912566927759
22.701636344393254
22.6250806836925
22.549453651094634
22.474750179878455
22.400965185679578
22.32809358587926
22.256130332331384
10.727068902628275
10.727068902628275
10.727068902628275
10.727068902628275
10.727068902628275
10.727068902628275
10.727068902628275
10.727068902628275
10.727068902628275
10.727068902628275
10.53424911964341
10.53583292633984
10.537463372796353
10.539140418757889
10.540864030801695
10.542634181008037
10.544450846187233
10.546314007387501
10.548223649571968
24.31181392112126
24.166605694638353
24.026731398274123
23.892189271975
23.76297580551775
23.63908588883645
23.520512973219642
23.407249241734142
23.29928578467706
23.196612771186665
23.099219598109702
23.007094976672416
22.92022687794552
22.838602179154755
22.76066145870988
22.683667419840752
22.607616063839604
22.532503273149743
22.458324777655214
22.385076108123595
22.31275252574664
22.241348901947337
10.727068902628275
10.727068902628275
10.727068902628275
10.727068902628275
10.727068902628275
10.727068902628275
10.727068902628275
10.727068902628275
10.727068902628275
10.727068902628275
10.534255548644287
10.535862397454268
10.537512513464812
10.53920599402441
10.540942913190564
10.542723326339637
10.544547272717216
10.546414776953442
10.548325849957946
24.26141935120742
24.116197790341623
23.976302882175744
23.841728723457223
23.71246483201764
23.588496176657465
23.46980315650566
23.35636153926538
23.248142377882562
23.145111942945235
23.047231745387208
22.954458799532794
22.866746420767853
22.784046139076036
22.704899144080482
22.626671526347906
22.549357227466196
22.472950399558016
22.397445536060435
22.322837649795705
22.2491225393882
22.176297240116035
10.727068902628275
10.727068902628275
10.727068902628275
10.727068902628275
10.727068902628275
10.727068902628275
10.727068902628275
10.727068902628275
10.727068902628275
10.727068902628275
10.534085734815221
10.535603848860625
10.537177993817446
10.538807837071055
10.540493121472123
10.542233648197698
10.544029267218674
10.545879871561647
10.547785393824599
24.119607857472165
23.97450421919538
23.83502548553715
23.701177601086705
23.572969839322912
23.450414977107837
23.33352952053845
23.222333944010767
23.116852865564162
23.01711501531075
22.923152716776308
22.83500032548847
22.752690544968967
22.67624649927528
22.603786278192047
22.53231736521724
22.461834877387943
22.392332811564188
22.323803557623968
22.256237236666028
22.189620711771365
22.12393591389248
10.727068902628275
10.727068902628275
10.727068902628275
10.727068902628275
10.727068902628275
10.727068902628275
10.727068902628275
10.727068902628275
10.727068902628275
10.727068902628275
10.534858628692952
10.536717216400906
10.538583692871086
10.5404590102196
10.542343879090133
10.544238831432303
10.546144255113472
10.548060414548646
10.549987463073212
23.864181376707847
23.718326063012004
23.57669075807019
23.43926141048638
23.30601444657359
23.176917111805878
23.051927768038883
22.930996291999307
22.81406486494806
22.7010696862958
22.591944643030075
22.4866289677976
22.38508281806303
22.28731847962858
22.19260062506485
22.09871196445531
22.00566927893856
21.913493435399808
21.82221118984967
21.731857636998136
21.642479872118393
21.5541431947936
10.727068902628275
10.727068902628275
10.727068902628275
10.727068902628275
10.727068902628275
10.727068902628275
10.727068902628275
10.727068902628275
10.727068902628275
10.727068902628275
10.71668894895796
10.718036316906023
10.719462936609151
10.720965791263312
10.72254267477815
10.724191960024402
10.725912471474716
10.727703409453014
10.729564304716947
23.86333904131108
23.717482454054085
23.575843221944105
23.43840629156396
23.305147020130786
23.17603153429333
23.051016666870694
22.93004971283371
22.813068069241353
22.69999873480422
22.59075760145383
22.48524856070955
22.383363026611008
22.28497730176507
22.18940130962566
22.09457717930832
22.000482721339502
21.907090363420927
21.814362216160593
21.722239808222195
21.630619221740602
21.5392857301015
21.447467812720372
10.372721912533361
10.542180051770975
10.540750541198152
10.541540987529105
10.541196600507645
10.541325834643105
10.541105362768207
10.540448508187705
10.716728327240803
10.718162733267675
10.719616292820968
10.721118071195859
10.72267585816886
10.724293004841245
10.725971091373335
10.727710907159455
10.729512848029003
10.731377094745714
23.862569499571496
23.71671200364555
23.575069851553877
23.437626912438116
23.304357457694046
23.175226512695083
23.050189409120797
22.92919089605275
22.812163632673187
22.699025478631984
22.58967441936403
22.48397906430859
22.381762023839485
22.282765002787116
22.186344468735335
22.090600821117906
21.995475271693937
21.90089596646429
21.80676864534445
21.712959632990223
21.61926195238746
21.525310613132163
21.430532972978803
10.390397791382856
10.539353221004374
10.543496784368896
10.54282228055616
10.542858685181095
10.542907071945942
10.542632200313847
10.542274254865584
10.718109989211749
10.719650716440261
10.721195820138472
10.72276676680702
10.724376770891423
10.726032842554925
10.727739045832235
10.729497815865678