# vtk DataFile Version 2.0
Niestacjonarne zagadnienie cieplne - ogrzewanie wody w garnku stalowym
ASCII
DATASET UNSTRUCTURED_GRID
POINTS 1353 float
0.0 0.0 0.0
0.0 3.846153846153846E-4 0.0
0.0 7.692307692307692E-4 0.0
0.0 0.0011538461538461537 0.0
0.0 0.0015384615384615385 0.0
0.0 0.0019230769230769232 0.0
0.0 0.0023076923076923075 0.0
0.0 0.002692307692307692 0.0
0.0 0.003076923076923077 0.0
0.0 0.0034615384615384616 0.0
0.0 0.0038461538461538464 0.0
0.0 0.004230769230769231 0.0
0.0 0.004615384615384615 0.0
0.0 0.005 0.0
0.0 0.005111111111111111 0.0
0.0 0.005222222222222223 0.0
0.0 0.005333333333333333 0.0
0.0 0.0054444444444444445 0.0
0.0 0.005555555555555556 0.0
0.0 0.005666666666666667 0.0
0.0 0.0057777777777777775 0.0
0.0 0.005888888888888889 0.0
0.0 0.006 0.0
0.0 0.01711111111111111 0.0
0.0 0.028222222222222225 0.0
0.0 0.03933333333333333 0.0
0.0 0.050444444444444445 0.0
0.0 0.06155555555555556 0.0
0.0 0.07266666666666667 0.0
0.0 0.08377777777777778 0.0
0.0 0.0948888888888889 0.0
0.0 0.10600000000000001 0.0
0.0 0.10611111111111113 0.0
0.0 0.10622222222222223 0.0
0.0 0.10633333333333335 0.0
0.0 0.10644444444444445 0.0
0.0 0.10655555555555557 0.0
0.0 0.10666666666666667 0.0
0.0 0.10677777777777779 0.0
0.0 0.1068888888888889 0.0
0.0 0.10700000000000001 0.0
1.1111111111111112E-4 0.0 0.0
1.1111111111111112E-4 3.846153846153846E-4 0.0
1.1111111111111112E-4 7.692307692307692E-4 0.0
1.1111111111111112E-4 0.0011538461538461537 0.0
1.1111111111111112E-4 0.0015384615384615385 0.0
1.1111111111111112E-4 0.0019230769230769232 0.0
1.1111111111111112E-4 0.0023076923076923075 0.0
1.1111111111111112E-4 0.002692307692307692 0.0
1.1111111111111112E-4 0.003076923076923077 0.0
1.1111111111111112E-4 0.0034615384615384616 0.0
1.1111111111111112E-4 0.0038461538461538464 0.0
1.1111111111111112E-4 0.004230769230769231 0.0
1.1111111111111112E-4 0.004615384615384615 0.0
1.1111111111111112E-4 0.005 0.0
1.1111111111111112E-4 0.005111111111111111 0.0
1.1111111111111112E-4 0.005222222222222223 0.0
1.1111111111111112E-4 0.005333333333333333 0.0
1.1111111111111112E-4 0.0054444444444444445 0.0
1.1111111111111112E-4 0.005555555555555556 0.0
1.1111111111111112E-4 0.005666666666666667 0.0
1.1111111111111112E-4 0.0057777777777777775 0.0
1.1111111111111112E-4 0.005888888888888889 0.0
1.1111111111111112E-4 0.006 0.0
1.1111111111111112E-4 0.01711111111111111 0.0
1.1111111111111112E-4 0.028222222222222225 0.0
1.1111111111111112E-4 0.03933333333333333 0.0
1.1111111111111112E-4 0.050444444444444445 0.0
1.1111111111111112E-4 0.06155555555555556 0.0
1.1111111111111112E-4 0.07266666666666667 0.0
1.1111111111111112E-4 0.08377777777777778 0.0
1.1111111111111112E-4 0.0948888888888889 0.0
1.1111111111111112E-4 0.10600000000000001 0.0
1.1111111111111112E-4 0.10611111111111113 0.0
1.1111111111111112E-4 0.10622222222222223 0.0
1.1111111111111112E-4 0.10633333333333335 0.0
1.1111111111111112E-4 0.10644444444444445 0.0
1.1111111111111112E-4 0.10655555555555557 0.0
1.1111111111111112E-4 0.10666666666666667 0.0
1.1111111111111112E-4 0.10677777777777779 0.0
1.1111111111111112E-4 0.1068888888888889 0.0
1.1111111111111112E-4 0.10700000000000001 0.0
2.2222222222222223E-4 0.0 0.0
2.2222222222222223E-4 3.846153846153846E-4 0.0
2.2222222222222223E-4 7.692307692307692E-4 0.0
2.2222222222222223E-4 0.0011538461538461537 0.0
2.2222222222222223E-4 0.0015384615384615385 0.0
2.2222222222222223E-4 0.0019230769230769232 0.0
2.2222222222222223E-4 0.0023076923076923075 0.0
2.2222222222222223E-4 0.002692307692307692 0.0
2.2222222222222223E-4 0.003076923076923077 0.0
2.2222222222222223E-4 0.0034615384615384616 0.0
2.2222222222222223E-4 0.0038461538461538464 0.0
2.2222222222222223E-4 0.004230769230769231 0.0
2.2222222222222223E-4 0.004615384615384615 0.0
2.2222222222222223E-4 0.005 0.0
2.2222222222222223E-4 0.005111111111111111 0.0
2.2222222222222223E-4 0.005222222222222223 0.0
2.2222222222222223E-4 0.005333333333333333 0.0
2.2222222222222223E-4 0.0054444444444444445 0.0
2.2222222222222223E-4 0.005555555555555556 0.0
2.2222222222222223E-4 0.005666666666666667 0.0
2.2222222222222223E-4 0.0057777777777777775 0.0
2.2222222222222223E-4 0.005888888888888889 0.0
2.2222222222222223E-4 0.006 0.0
2.2222222222222223E-4 0.01711111111111111 0.0
2.2222222222222223E-4 0.028222222222222225 0.0
2.2222222222222223E-4 0.03933333333333333 0.0
2.2222222222222223E-4 0.050444444444444445 0.0
2.2222222222222223E-4 0.06155555555555556 0.0
2.2222222222222223E-4 0.07266666666666667 0.0
2.2222222222222223E-4 0.08377777777777778 0.0
2.2222222222222223E-4 0.0948888888888889 0.0
2.2222222222222223E-4 0.10600000000000001 0.0
2.2222222222222223E-4 0.10611111111111113 0.0
2.2222222222222223E-4 0.10622222222222223 0.0
2.2222222222222223E-4 0.10633333333333335 0.0
2.2222222222222223E-4 0.10644444444444445 0.0
2.2222222222222223E-4 0.10655555555555557 0.0
2.2222222222222223E-4 0.10666666666666667 0.0
2.2222222222222223E-4 0.10677777777777779 0.0
2.2222222222222223E-4 0.1068888888888889 0.0
2.2222222222222223E-4 0.10700000000000001 0.0
3.333333333333334E-4 0.0 0.0
3.333333333333334E-4 3.846153846153846E-4 0.0
3.333333333333334E-4 7.692307692307692E-4 0.0
3.333333333333334E-4 0.0011538461538461537 0.0
3.333333333333334E-4 0.0015384615384615385 0.0
3.333333333333334E-4 0.0019230769230769232 0.0
3.333333333333334E-4 0.0023076923076923075 0.0
3.333333333333334E-4 0.002692307692307692 0.0
3.333333333333334E-4 0.003076923076923077 0.0
3.333333333333334E-4 0.0034615384615384616 0.0
3.333333333333334E-4 0.0038461538461538464 0.0
3.333333333333334E-4 0.004230769230769231 0.0
3.333333333333334E-4 0.004615384615384615 0.0
3.333333333333334E-4 0.005 0.0
3.333333333333334E-4 0.005111111111111111 0.0
3.333333333333334E-4 0.005222222222222223 0.0
3.333333333333334E-4 0.005333333333333333 0.0
3.333333333333334E-4 0.0054444444444444445 0.0
3.333333333333334E-4 0.005555555555555556 0.0
3.333333333333334E-4 0.005666666666666667 0.0
3.333333333333334E-4 0.0057777777777777775 0.0
3.333333333333334E-4 0.005888888888888889 0.0
3.333333333333334E-4 0.006 0.0
3.333333333333334E-4 0.01711111111111111 0.0
3.333333333333334E-4 0.028222222222222225 0.0
3.333333333333334E-4 0.03933333333333333 0.0
3.333333333333334E-4 0.050444444444444445 0.0
3.333333333333334E-4 0.06155555555555556 0.0
3.333333333333334E-4 0.07266666666666667 0.0
3.333333333333334E-4 0.08377777777777778 0.0
3.333333333333334E-4 0.0948888888888889 0.0
3.333333333333334E-4 0.10600000000000001 0.0
3.333333333333334E-4 0.10611111111111113 0.0
3.333333333333334E-4 0.10622222222222223 0.0
3.333333333333334E-4 0.10633333333333335 0.0
3.333333333333334E-4 0.10644444444444445 0.0
3.333333333333334E-4 0.10655555555555557 0.0
3.333333333333334E-4 0.10666666666666667 0.0
3.333333333333334E-4 0.10677777777777779 0.0
3.333333333333334E-4 0.1068888888888889 0.0
3.333333333333334E-4 0.10700000000000001 0.0
4.4444444444444447E-4 0.0 0.0
4.4444444444444447E-4 3.846153846153846E-4 0.0
4.4444444444444447E-4 7.692307692307692E-4 0.0
4.4444444444444447E-4 0.0011538461538461537 0.0
4.4444444444444447E-4 0.0015384615384615385 0.0
4.4444444444444447E-4 0.0019230769230769232 0.0
4.4444444444444447E-4 0.0023076923076923075 0.0
4.4444444444444447E-4 0.002692307692307692 0.0
4.4444444444444447E-4 0.003076923076923077 0.0
4.4444444444444447E-4 0.0034615384615384616 0.0
4.4444444444444447E-4 0.0038461538461538464 0.0
4.4444444444444447E-4 0.004230769230769231 0.0
4.4444444444444447E-4 0.004615384615384615 0.0
4.4444444444444447E-4 0.005 0.0
4.4444444444444447E-4 0.005111111111111111 0.0
4.4444444444444447E-4 0.005222222222222223 0.0
4.4444444444444447E-4 0.005333333333333333 0.0
4.4444444444444447E-4 0.0054444444444444445 0.0
4.4444444444444447E-4 0.005555555555555556 0.0
4.4444444444444447E-4 0.005666666666666667 0.0
4.4444444444444447E-4 0.0057777777777777775 0.0
4.4444444444444447E-4 0.005888888888888889 0.0
4.4444444444444447E-4 0.006 0.0
4.4444444444444447E-4 0.01711111111111111 0.0
4.4444444444444447E-4 0.028222222222222225 0.0
4.4444444444444447E-4 0.03933333333333333 0.0
4.4444444444444447E-4 0.050444444444444445 0.0
4.4444444444444447E-4 0.06155555555555556 0.0
4.4444444444444447E-4 0.07266666666666667 0.0
4.4444444444444447E-4 0.08377777777777778 0.0
4.4444444444444447E-4 0.0948888888888889 0.0
4.4444444444444447E-4 0.10600000000000001 0.0
4.4444444444444447E-4 0.10611111111111113 0.0
4.4444444444444447E-4 0.10622222222222223 0.0
4.4444444444444447E-4 0.10633333333333335 0.0
4.4444444444444447E-4 0.10644444444444445 0.0
4.4444444444444447E-4 0.10655555555555557 0.0
4.4444444444444447E-4 0.10666666666666667 0.0
4.4444444444444447E-4 0.10677777777777779 0.0
4.4444444444444447E-4 0.1068888888888889 0.0
4.4444444444444447E-4 0.10700000000000001 0.0
5.555555555555556E-4 0.0 0.0
5.555555555555556E-4 3.846153846153846E-4 0.0
5.555555555555556E-4 7.692307692307692E-4 0.0
5.555555555555556E-4 0.0011538461538461537 0.0
5.555555555555556E-4 0.0015384615384615385 0.0
5.555555555555556E-4 0.0019230769230769232 0.0
5.555555555555556E-4 0.0023076923076923075 0.0
5.555555555555556E-4 0.002692307692307692 0.0
5.555555555555556E-4 0.003076923076923077 0.0
5.555555555555556E-4 0.0034615384615384616 0.0
5.555555555555556E-4 0.0038461538461538464 0.0
5.555555555555556E-4 0.004230769230769231 0.0
5.555555555555556E-4 0.004615384615384615 0.0
5.555555555555556E-4 0.005 0.0
5.555555555555556E-4 0.005111111111111111 0.0
5.555555555555556E-4 0.005222222222222223 0.0
5.555555555555556E-4 0.005333333333333333 0.0
5.555555555555556E-4 0.0054444444444444445 0.0
5.555555555555556E-4 0.005555555555555556 0.0
5.555555555555556E-4 0.005666666666666667 0.0
5.555555555555556E-4 0.0057777777777777775 0.0
5.555555555555556E-4 0.005888888888888889 0.0
5.555555555555556E-4 0.006 0.0
5.555555555555556E-4 0.01711111111111111 0.0
5.555555555555556E-4 0.028222222222222225 0.0
5.555555555555556E-4 0.03933333333333333 0.0
5.555555555555556E-4 0.050444444444444445 0.0
5.555555555555556E-4 0.06155555555555556 0.0
[...]
POINT_DATA 1353
SCALARS Temperatura float 1
LOOKUP_TABLE default
73.90697633419363
73.76876041492484
73.62939098112251
73.48883229539769
73.34704189792893
73.20396243634389
73.05951619671602
72.91359567956846
72.76604703895956
72.61663383396514
72.46498372635077
72.31038931290173
72.15180335675592
71.9846442283193
71.81068597648748
71.64186754338249
71.47407882792409
71.3064630548092
71.13839851643303
70.96938723280194
70.79897551635577
70.62672951273916
70.4522275332981
50.45777104676692
50.2485041284182
50.284533936374245
50.275688939659126
50.27796203478312
50.27698239364879
50.27898306452697
50.26929441253704
49.49405503764926
49.48748072253469
49.481004804564165
49.474615955429584
49.46830350255583
49.462057893753496
49.455871034544195
49.44973650242145
49.44364966300172
49.43760772130736
73.9102562538012
73.77203425191063
73.63265775870273
73.49209247262155
73.35029598714469
73.2072111990207
73.06276070422982
72.91683780931847
72.76928929739285
72.61988401965465
72.46824252239152
72.31372317405818
72.15505403183846
71.98912035681944
71.82028935063741
71.65202999557263
71.48461610484983
71.31724855958404
71.14939063159586
70.9805683212533
70.81033781965708
70.6382678209593
70.46393544327705
50.46211236663757
50.25524559516946
50.290652585361535
50.281970255173306
50.28419940074845
50.283237025997586
50.285210794445746
50.275616319628696
49.500085987586715
49.49351613258344
49.487044641358075
49.48065989007358
49.47435096745438
49.46810815197193
49.461923245294145
49.45578977170465
49.449703075675316
49.44366035678188
73.91367961497147
73.77545453478244
73.63607364767478
73.49550523268559
73.35370736112142
73.21062357863212
73.0661775421493
72.92026446155013
72.7727350806881
72.6233651743102
72.47179159355993
72.31740661759281
72.15897303421558
71.99451738258504
71.8281158148394
71.66166446234584
71.49525281809287
71.3286544991036
71.16146494065809
70.9932708446103
70.8236519878099
70.65218224687469
70.47843344222146
50.462675239195505
50.26310001450877
50.29662167468992
50.28843170967403
50.29052782342918
50.28961775299971
50.2915098949103
50.28220211387219
49.5061155575365
49.49956210874441
49.49310685168777
49.48673724904576
49.48044166560846
49.474209881958494
49.46803340918327
49.46190563523883
49.45582186047151
49.44977928028515
73.91724746314645
73.77902117131615
73.63963855363347
73.49907043390279
73.35727582680003
73.2141993112577
73.06976625830059
72.92387504132427
72.77638265674263
72.6270765319007
72.47562035769784
72.32144715079372
72.1634976388874
72.00047549867759
71.83596238667269
71.6711980848593
71.50618213020252
71.34075968770232
71.1746520970179
71.0075058627172
70.83892607918486
70.66848789749817
70.4957484839301
50.45944863198164
50.27207195787927
50.302439595421596
50.2950738760588
50.29694713175221
50.296124710792135
50.29788020890606
50.289052202190625
49.512142920478475
49.5056188813651
49.49919261376589
49.49284994605769
49.486577999430416
49.480365755823065
49.47420431185657
49.4680869045673
49.462008821979644
49.45596729003361
73.92096032531713
73.78273413750208
73.64335229125801
73.50278783653987
73.3610010622785
73.2179379425758
73.0735261568358
72.92766837765211
72.78022988738377
72.63101446575772
72.47971901703582
72.32583946940905
72.16853057770301
72.00690534582064
71.84412175627733
71.68103178702309
71.5175845574533
71.35364217682323
71.18897531500781
71.02327448626033
70.85616219456607
70.68720416535587
70.5159256428649
50.45241451914897
50.282168938205196
50.30810367248128
50.30189768897399
50.303457026573064
50.30275811044781
50.304321461568875
50.2961672386478
49.51816665559894
49.5116869724112
49.505304151605884
49.49900146369689
49.49276422214462
49.48658039391234
49.48044067963507
49.47433828593188
49.468268617692864
49.462229020842216
73.92481841934399
73.78659336198372
73.64721460372523
73.5066571002934
73.36488261915609
73.22183884531813
73.0774562845635
72.93164286236902
72.78427397813083
72.63517347593042
72.48407747948147
72.33056335770544
72.17399312692044
72.01375613903916
71.8526760720464
71.69129981274092
71.52956057368743
71.36733328707298
71.2044208517469
71.04054516302601
70.87533942815892
70.70834558650354
70.53902913466372
50.44154759200146
50.29340149387386
50.313610139672775
50.30890445247403
50.31005707793366
50.3095182402371
50.310833254481985
50.30354814414526
49.52418467702156
49.51776748152633
49.51144524243728
49.505197390410686
49.49900685725884
49.49286061896978
49.48674928940503
49.48066639446239
49.47460772001558
49.46857088979321
73.92882175254653
73.7905986853505
73.65122516018407
73.51067778679578
73.36891992756898
73.22590123165547
73.08155545005647
72.93579652222265
72.78851144961722
72.63954692029911
72.48868367258777
72.3355914787082
72.17982159437625
72.02098035189827
71.86162408069526
71.70202041605127
71.54211037816057
71.38179330092724
71.22091027818446
71.05922395226287
70.89638595531518
70.73190509239441
70.56514426349437
50.42681471454373
50.30578334364294
50.31895409468034
50.31609585345786
50.3167467204045
50.31640546934862
50.317415056294834
50.31119613901479
49.53019411543682
49.52386270427056
49.51762224066032
49.511446377482244
49.505315346198934
49.49921575910697
49.49313905340414
49.487079714229765
49.48103431444175
49.47500097590232
73.93297017203756
73.79474984815961
73.65538354997497
73.51484936249975
73.37311230284848
73.2301241667197
73.0858222549477
72.94012706943396
72.79293826215721
72.64412728895653
72.49352349625592
72.34089381217743
72.18596141333866
72.02852589973222
71.87092148063995
71.71314362243132
71.5551584679014
71.39690471583292
71.23827903854303
71.0791131131723
70.91912900156093
70.75781753261985
70.59438108059749
50.40817391328414
50.31933166911449
50.324129418818934
50.32347398502119
50.32352524524412
50.32342025398211
50.324066187298016
50.31911279702467
49.53619112104226
49.5299776165333
49.52384610862338
49.517761909818795
49.511702767107735
49.50565786874358
49.499620987315794
49.49358844623794
49.48755809483985
49.4815288006824
73.93726339312731
73.79904648992354
73.65968927844689
73.51917120139564
73.37745895313822
73.23450658472763
73.09025512784832
72.94463196241715
72.79754996562382
72.64890640738561
72.49858139598128
72.34643973535856
72.19236319466157
72.03633553379959
71.88049760396319
71.72457552098368
71.56857223052663
71.41247877312532
71.25626649001438
71.09987293211431
70.94316852199638
70.78587619532749
70.62688145186887
50.38557244523776
50.334067647289416
50.32912862860028
50.331041388643655
50.330391786716426
50.33056314750365
50.33078579387145
50.32730013537944
49.54217053376098
49.53612187408524
49.530139264638855
49.52416385027214
49.518186230699094
49.51220163952472
49.506207948736744
49.50020418705139
49.494189923896236
49.48816498489418
73.94170101736297
73.80348815220432
73.66414176494642
73.52364258773471
73.38195898770849
73.23904730679267
73.09485236009002
72.94930847623485
72.80234184811597
72.65387567926358
72.50384104466835
72.35219892126415
72.19898057608333
72.04434851093329
71.89026626520861
71.73619521756231
71.58218051813007
71.42827226576546
71.27452773510124
71.12101464294739
70.96781623019956
70.81503986529323
52.238215201536946
52.238215201536946
52.238215201536946
52.238215201536946
52.238215201536946
52.238215201536946
52.238215201536946
52.238215201536946
52.238215201536946
52.238215201536946
49.54235461961655
49.53653655096458
49.5306786189691
49.524786323302756
49.51886377901987
49.51291406061496
49.5069394078237
49.50094134937857
49.494920777578756
74.7095522034355
74.57280113600007
74.43753573815196
74.30377214924698
74.1715371306887
74.04086820321088
73.91181383291983
73.78443356380777
73.65879788981321
73.53498746299647
73.41309084009112
73.29319926860289
73.1753965085353
73.05974295956489
72.94615467247117
72.83280772271401
72.71970022706665
72.60682904196827
72.49418915742213
72.3817728102422
72.26956810764973
72.15755670247547
52.238215201536946
52.238215201536946
52.238215201536946
52.238215201536946
52.238215201536946
52.238215201536946
52.238215201536946
52.238215201536946
52.238215201536946
52.238215201536946
50.35413470746129
50.345808655348186
50.337771498380825
50.33002102717861
50.322555510983605
50.31537360384103
50.30847428821127
50.301856840885684
50.295520812362525
75.22063800942641
75.08366134794684
74.94750114430737
74.81215140066269
74.67760191461282
74.54383812787961
74.41084091445788
74.27858633390971
74.14704540341363
74.01618399552365
73.88596307649371
73.75633969317413
73.62726926242682
73.49870939254637
73.37140416086555
73.24419700950753
73.11708567867623
72.99006821110822
72.86314311392864
72.73630959625936
72.60956793885629
72.48292011913152
52.238215201536946
52.238215201536946
52.238215201536946
52.238215201536946
52.238215201536946
52.238215201536946
52.238215201536946
52.238215201536946
52.238215201536946
52.238215201536946
50.36409999604099
50.35738947707213
50.350745234989645
50.344168157433735
50.337658952471116
50.33121817440238
50.32484623939406
50.31854343500726
50.31230992600288
75.48911030286162
75.3521600085172
75.2159708749762
75.08054476587007
74.94588473316738
74.81199509619952
74.67888155340351
74.54655132102266
74.41501328574994
74.28427814403649
74.15435847150052
74.02526861292836
73.8970242416282
73.7696415194873
73.64371420364861
73.51792251178757
73.3922676364484
73.26675070112704
73.14137271782567
73.01613452417415
72.89103668496443
72.76607932492814
52.238215201536946
52.238215201536946
52.238215201536946
52.238215201536946
52.238215201536946
52.238215201536946
52.238215201536946
52.238215201536946
52.238215201536946
52.238215201536946
50.36401628574662
50.35689595660557
50.34989934790097
50.34302611084255
50.33627595789558
50.329648655606725
50.323144020210215
50.316761914918224
50.31050224825479
75.64032035261816
75.50336833964565
75.36711098623688
75.231547892469
75.09667827567759
74.96250093824176
74.8290142216929
74.69621594818379
74.56410335216884
74.43267300888607
74.30192077410024
74.17184176398722
74.04243041584085
73.9136806492296
73.78628037592584
73.65899550594209
73.53182552433461
73.40476993002144
73.27782824671753
73.15100003937825
73.02428494023283
72.8976826933295
52.238215201536946
52.238215201536946
52.238215201536946
52.238215201536946
52.238215201536946
52.238215201536946
52.238215201536946
52.238215201536946
52.238215201536946
52.238215201536946
50.36401693444978
50.357003648702296
50.350098819997505
50.343302535080646
50.33661486068716
50.33003584555589
50.3235655216787
50.317203905081726
50.31095099631086
75.72102087143186
75.58406773607295
75.44777396272478
75.31213977581851
75.17716546636659
75.04285140364176
74.90919805193815
74.77620599233474
74.6438759489502
74.51220881821894
74.38120569762197
74.25086790639233
74.12119698740437
73.9921946848618
73.86455075106677
73.7370242333454
73.60961530432296
73.48232413395341
73.35515088675008
73.22809571752602
73.10115876454053
72.97434013764125
52.238215201536946
52.238215201536946
52.238215201536946
52.238215201536946
52.238215201536946
52.238215201536946
52.238215201536946
52.238215201536946
52.238215201536946
52.238215201536946
50.364026607936715
50.35698526734315
50.35005645303088
50.34324010754048
50.33653617965423
50.32994462382381
50.323465399809685
50.317098472452116
50.310843811527384
75.76047066800076
75.62351781930965
75.48720860021231
75.35154308847868
75.21652132264947
75.08214329786087
74.94840895980447
74.81531819676309
74.68287082976099
74.55106660111772
74.41990516227573
74.28938606288794
74.15950874412489
74.03027253768254
73.90238065121225
73.77460345327638
73.64694088477722
73.51939288668355
73.3919594007517
73.26464037067451
73.1374357439741
73.01034547533024
52.238215201536946
52.238215201536946
52.238215201536946
52.238215201536946
52.238215201536946
52.238215201536946
52.238215201536946
52.238215201536946
52.238215201536946
52.238215201536946
50.364021661627184
50.35698781123718
50.35006538146749
50.34325436176921
50.33655473942564
50.329966499727114
50.32348962608316
50.31712410009484
50.3108699016008
75.77223964017682
75.63528655943311
75.49897180887969
75.36329551227762
75.22825778976909
75.09385876028388
74.96009854504324
74.82697727222764
74.694495082838
74.5626521376665
74.43144862501198
74.30088476822205
74.17096083165066
74.04167712433795
73.91373804561476
73.78591378057446
73.65820437079641
73.53060985779504
73.40313028269162
73.27576568567184
73.14851610507021
73.02138157573495
52.238215201536946
52.238215201536946
52.238215201536946
52.238215201536946
52.238215201536946
52.238215201536946
52.238215201536946
52.238215201536946
52.238215201536946
52.238215201536946
50.364023891254824
50.356987595232475
50.350063087778814
50.34325033999066
50.3365493240542
50.32996001315265
50.32348238140625
50.31711640383321
50.31086205632453
75.76047066800064
75.6235178193095
75.48720860021211
75.35154308847842
75.21652132264907
75.0821432978603
74.94840895980377
74.81531819676229
74.6828708297601
74.55106660111667
74.41990516227447
74.28938606288645
74.15950874412317
74.03027253768056
73.90238065121005
73.77460345327395
73.64694088477461
73.51939288668075
73.39195940074872
73.2646403706714
73.13743574397093
73.01034547532701
52.238215201536946
52.238215201536946
52.238215201536946
52.238215201536946
52.238215201536946
52.238215201536946
52.238215201536946
52.238215201536946
52.238215201536946
52.238215201536946
50.3640216616223
50.356987811232294
50.350065381462585
50.34325436176429
50.33655473942069
50.329966499722126
50.32348962607814
50.31712410008981
50.31086990159578
75.72102087143514
75.58406773607624
75.44777396272808
75.31213977582186
75.17716546637003
75.0428514036453
74.9091980519417
74.77620599233825
74.64387594895368
74.51220881822243
74.38120569762553
74.25086790639602
74.12119698740817
73.99219468486577
73.86455075107088
73.73702423334962
73.60961530432729
73.48232413395789
73.35515088675464
73.22809571753062
73.1011587645451
72.9743401376458
52.238215201536946
52.238215201536946
52.238215201536946
52.238215201536946
52.238215201536946
52.238215201536946
52.238215201536946
52.238215201536946
52.238215201536946
52.238215201536946
50.3640266079215
50.35698526732786
50.35005645301552
50.343240107525034
50.336536179638706
50.32994462380824
50.32346539979406
50.31709847243647
50.310843811511745
75.64032035262348
75.50336833965099
75.3671109862423
75.23154789247445
75.09667827568302
74.96250093824708
74.8290142216982
74.69621594818905
74.56410335217403
74.43267300889111
74.30192077410504
74.17184176399174
74.0424304158451
73.91368064923356
73.78628037592955
73.65899550594561
73.53182552433802
73.40476993002476
73.27782824672076
73.15100003938142
73.02428494023597
72.89768269333261
52.238215201536946
52.238215201536946
52.238215201536946
52.238215201536946
52.238215201536946
52.238215201536946
52.238215201536946
52.238215201536946
52.238215201536946
52.238215201536946
50.36401693444875
50.35700364870128
50.350098819996504
50.34330253507967
50.33661486068621
50.33003584555498
50.32356552167781
50.317203905080824
50.31095099630995
75.48911030287407
75.35216000852962
75.21597087498859
75.08054476588242
74.94588473317968
74.81199509621182
74.67888155341575
74.54655132103487
74.41501328576216
74.28427814404874
74.1543584715128
74.02526861294069
73.89702424164057
73.76964151949969
73.643714203661
73.51792251179997
73.39226763646072
73.26675070113922
73.14137271783778
73.01613452418616
72.89103668497629
72.76607932493988
52.238215201536946
52.238215201536946
52.238215201536946
52.238215201536946
52.238215201536946
52.238215201536946
52.238215201536946
52.238215201536946
52.238215201536946
52.238215201536946
50.364016285744206
50.35689595660313
50.34989934789852
50.34302611084009
50.33627595789311
50.329648655604245
50.323144020207735
50.31676191491576
50.31050224825233
75.22063800944204
75.08366134796252
74.94750114432311
74.8121514006785
74.67760191462872
74.5438381278956
74.41084091447395
74.27858633392586
74.14704540342983
74.0161839955399
73.88596307651002
73.75633969319053
73.62726926244333
73.49870939256304
73.3714041608824
73.24419700952454
73.11708567869341
72.99006821112559
72.86314311394614
72.73630959627697
72.60956793887397
72.4829201191492
52.238215201536946
52.238215201536946
52.238215201536946
52.238215201536946
52.238215201536946
52.238215201536946
52.238215201536946
52.238215201536946
52.238215201536946
52.238215201536946
50.364099996031065
50.35738947706214
50.3507452349796
50.34416815742363
50.337658952461
50.331218174392255
50.32484623938396
50.31854343499718
50.312309925992814
74.70955220343934
74.57280113600392
74.43753573815582
74.30377214925086
74.17153713069257
74.0408682032147
73.91181383292358
73.78443356381148
73.65879788981688
73.53498746300015
73.41309084009481
73.29319926860659
73.17539650853898
73.05974295956857
72.94615467247479
72.83280772271759
72.7197002270702
72.60682904197171
72.49418915742552
72.38177281024554
72.26956810765299
72.15755670247866
52.238215201536946
52.238215201536946
52.238215201536946
52.238215201536946
52.238215201536946
52.238215201536946
52.238215201536946
52.238215201536946
52.238215201536946
52.238215201536946
50.3541347074622
50.345808655349096
50.337771498381734
50.330021027179534
50.32255551098451
50.315373603841884
50.30847428821207
50.301856840886444
50.29552081236327
73.94170101736326
73.80348815220461
73.66414176494669
73.52364258773494
73.38195898770869
73.2390473067929
73.09485236009036
72.94930847623525
72.80234184811647
72.6538756792641
72.50384104466895
72.35219892126483
72.19898057608407
72.04434851093404
71.89026626520943
71.7361952175632
71.58218051813103
71.42827226576655
71.27452773510238
71.12101464294857
70.96781623020078
70.81503986529448
52.238215201536946
52.238215201536946
52.238215201536946
52.238215201536946
52.238215201536946
52.238215201536946
52.238215201536946
52.238215201536946
52.238215201536946
52.238215201536946
49.542354619609014
49.53653655095708
49.53067861896166
49.52478632329533
49.51886377901247
49.51291406060759
49.50693940781639
49.50094134937128
49.494920777571465
73.93726339312767
73.7990464899239
73.65968927844717
73.51917120139584
73.37745895313842
73.23450658472787
73.09025512784868
72.94463196241762
72.79754996562434
72.64890640738615
72.49858139598187
72.3464397353593
72.19236319466243
72.03633553380041
71.88049760396406
71.72457552098463
71.5685722305276
71.41247877312637
71.25626649001552
71.09987293211542
70.94316852199753
70.78587619532873
70.62688145187012
50.38557244524362
50.33406764731089
50.329128628608125
50.331041388651215
50.330391786746056
50.330563147510496
50.33078579387047
50.327300135380604
49.542170533753385
49.53612187407761
49.53013926463127
49.52416385026461
49.51818623069161
49.512201639517244
49.50620794872929
49.500204187043984
49.49418992388881
49.488164984886765
73.93297017203795
73.7947498481599
73.65538354997527
73.51484936249992
73.37311230284874
73.23012416671993
73.08582225494806
72.94012706943445
72.79293826215778
72.6441272889571
72.49352349625651
72.34089381217821
72.18596141333953
72.02852589973315
71.87092148064093
71.71314362243227
71.5551584679024
71.39690471583398
71.23827903854412
71.07911311317342
70.91912900156207
70.75781753262106
70.59438108059874
50.408173913290085
50.319331669136005
50.32412941882678
50.32347398502881
50.323525245273856
50.32342025398897
50.32406618729706
50.31911279702576
49.53619112103462
49.52997761652566
49.523846108615764
49.51776190981119
49.511702767100175
49.50565786873605
49.4996209873083
49.493588446230426
49.4875580948323
49.48152880067487
73.92882175254691
73.79059868535082
73.65122516018438
73.51067778679598
73.36891992756922
73.22590123165564
73.08155545005685
72.93579652222321
72.78851144961783
72.63954692029976
72.48868367258834
72.33559147870905
72.17982159437719
72.0209803518993
71.86162408069625
71.70202041605224
71.54211037816155
71.38179330092825
71.22091027818554
71.05922395226399
70.89638595531635
70.73190509239556
70.56514426349555
50.4268147145498
50.30578334366455
50.318954094688216
50.31609585346558
50.316746720434345
50.31640546935551
50.31741505629385
50.31119613901583
49.5301941154291
49.523862704262875