# vtk DataFile Version 2.0
Niestacjonarne zagadnienie cieplne - ogrzewanie wody w garnku stalowym
ASCII
DATASET UNSTRUCTURED_GRID
POINTS 1353 float
0.0 0.0 0.0
0.0 3.846153846153846E-4 0.0
0.0 7.692307692307692E-4 0.0
0.0 0.0011538461538461537 0.0
0.0 0.0015384615384615385 0.0
0.0 0.0019230769230769232 0.0
0.0 0.0023076923076923075 0.0
0.0 0.002692307692307692 0.0
0.0 0.003076923076923077 0.0
0.0 0.0034615384615384616 0.0
0.0 0.0038461538461538464 0.0
0.0 0.004230769230769231 0.0
0.0 0.004615384615384615 0.0
0.0 0.005 0.0
0.0 0.005111111111111111 0.0
0.0 0.005222222222222223 0.0
0.0 0.005333333333333333 0.0
0.0 0.0054444444444444445 0.0
0.0 0.005555555555555556 0.0
0.0 0.005666666666666667 0.0
0.0 0.0057777777777777775 0.0
0.0 0.005888888888888889 0.0
0.0 0.006 0.0
0.0 0.01711111111111111 0.0
0.0 0.028222222222222225 0.0
0.0 0.03933333333333333 0.0
0.0 0.050444444444444445 0.0
0.0 0.06155555555555556 0.0
0.0 0.07266666666666667 0.0
0.0 0.08377777777777778 0.0
0.0 0.0948888888888889 0.0
0.0 0.10600000000000001 0.0
0.0 0.10611111111111113 0.0
0.0 0.10622222222222223 0.0
0.0 0.10633333333333335 0.0
0.0 0.10644444444444445 0.0
0.0 0.10655555555555557 0.0
0.0 0.10666666666666667 0.0
0.0 0.10677777777777779 0.0
0.0 0.1068888888888889 0.0
0.0 0.10700000000000001 0.0
1.1111111111111112E-4 0.0 0.0
1.1111111111111112E-4 3.846153846153846E-4 0.0
1.1111111111111112E-4 7.692307692307692E-4 0.0
1.1111111111111112E-4 0.0011538461538461537 0.0
1.1111111111111112E-4 0.0015384615384615385 0.0
1.1111111111111112E-4 0.0019230769230769232 0.0
1.1111111111111112E-4 0.0023076923076923075 0.0
1.1111111111111112E-4 0.002692307692307692 0.0
1.1111111111111112E-4 0.003076923076923077 0.0
1.1111111111111112E-4 0.0034615384615384616 0.0
1.1111111111111112E-4 0.0038461538461538464 0.0
1.1111111111111112E-4 0.004230769230769231 0.0
1.1111111111111112E-4 0.004615384615384615 0.0
1.1111111111111112E-4 0.005 0.0
1.1111111111111112E-4 0.005111111111111111 0.0
1.1111111111111112E-4 0.005222222222222223 0.0
1.1111111111111112E-4 0.005333333333333333 0.0
1.1111111111111112E-4 0.0054444444444444445 0.0
1.1111111111111112E-4 0.005555555555555556 0.0
1.1111111111111112E-4 0.005666666666666667 0.0
1.1111111111111112E-4 0.0057777777777777775 0.0
1.1111111111111112E-4 0.005888888888888889 0.0
1.1111111111111112E-4 0.006 0.0
1.1111111111111112E-4 0.01711111111111111 0.0
1.1111111111111112E-4 0.028222222222222225 0.0
1.1111111111111112E-4 0.03933333333333333 0.0
1.1111111111111112E-4 0.050444444444444445 0.0
1.1111111111111112E-4 0.06155555555555556 0.0
1.1111111111111112E-4 0.07266666666666667 0.0
1.1111111111111112E-4 0.08377777777777778 0.0
1.1111111111111112E-4 0.0948888888888889 0.0
1.1111111111111112E-4 0.10600000000000001 0.0
1.1111111111111112E-4 0.10611111111111113 0.0
1.1111111111111112E-4 0.10622222222222223 0.0
1.1111111111111112E-4 0.10633333333333335 0.0
1.1111111111111112E-4 0.10644444444444445 0.0
1.1111111111111112E-4 0.10655555555555557 0.0
1.1111111111111112E-4 0.10666666666666667 0.0
1.1111111111111112E-4 0.10677777777777779 0.0
1.1111111111111112E-4 0.1068888888888889 0.0
1.1111111111111112E-4 0.10700000000000001 0.0
2.2222222222222223E-4 0.0 0.0
2.2222222222222223E-4 3.846153846153846E-4 0.0
2.2222222222222223E-4 7.692307692307692E-4 0.0
2.2222222222222223E-4 0.0011538461538461537 0.0
2.2222222222222223E-4 0.0015384615384615385 0.0
2.2222222222222223E-4 0.0019230769230769232 0.0
2.2222222222222223E-4 0.0023076923076923075 0.0
2.2222222222222223E-4 0.002692307692307692 0.0
2.2222222222222223E-4 0.003076923076923077 0.0
2.2222222222222223E-4 0.0034615384615384616 0.0
2.2222222222222223E-4 0.0038461538461538464 0.0
2.2222222222222223E-4 0.004230769230769231 0.0
2.2222222222222223E-4 0.004615384615384615 0.0
2.2222222222222223E-4 0.005 0.0
2.2222222222222223E-4 0.005111111111111111 0.0
2.2222222222222223E-4 0.005222222222222223 0.0
2.2222222222222223E-4 0.005333333333333333 0.0
2.2222222222222223E-4 0.0054444444444444445 0.0
2.2222222222222223E-4 0.005555555555555556 0.0
2.2222222222222223E-4 0.005666666666666667 0.0
2.2222222222222223E-4 0.0057777777777777775 0.0
2.2222222222222223E-4 0.005888888888888889 0.0
2.2222222222222223E-4 0.006 0.0
2.2222222222222223E-4 0.01711111111111111 0.0
2.2222222222222223E-4 0.028222222222222225 0.0
2.2222222222222223E-4 0.03933333333333333 0.0
2.2222222222222223E-4 0.050444444444444445 0.0
2.2222222222222223E-4 0.06155555555555556 0.0
2.2222222222222223E-4 0.07266666666666667 0.0
2.2222222222222223E-4 0.08377777777777778 0.0
2.2222222222222223E-4 0.0948888888888889 0.0
2.2222222222222223E-4 0.10600000000000001 0.0
2.2222222222222223E-4 0.10611111111111113 0.0
2.2222222222222223E-4 0.10622222222222223 0.0
2.2222222222222223E-4 0.10633333333333335 0.0
2.2222222222222223E-4 0.10644444444444445 0.0
2.2222222222222223E-4 0.10655555555555557 0.0
2.2222222222222223E-4 0.10666666666666667 0.0
2.2222222222222223E-4 0.10677777777777779 0.0
2.2222222222222223E-4 0.1068888888888889 0.0
2.2222222222222223E-4 0.10700000000000001 0.0
3.333333333333334E-4 0.0 0.0
3.333333333333334E-4 3.846153846153846E-4 0.0
3.333333333333334E-4 7.692307692307692E-4 0.0
3.333333333333334E-4 0.0011538461538461537 0.0
3.333333333333334E-4 0.0015384615384615385 0.0
3.333333333333334E-4 0.0019230769230769232 0.0
3.333333333333334E-4 0.0023076923076923075 0.0
3.333333333333334E-4 0.002692307692307692 0.0
3.333333333333334E-4 0.003076923076923077 0.0
3.333333333333334E-4 0.0034615384615384616 0.0
3.333333333333334E-4 0.0038461538461538464 0.0
3.333333333333334E-4 0.004230769230769231 0.0
3.333333333333334E-4 0.004615384615384615 0.0
3.333333333333334E-4 0.005 0.0
3.333333333333334E-4 0.005111111111111111 0.0
3.333333333333334E-4 0.005222222222222223 0.0
3.333333333333334E-4 0.005333333333333333 0.0
3.333333333333334E-4 0.0054444444444444445 0.0
3.333333333333334E-4 0.005555555555555556 0.0
3.333333333333334E-4 0.005666666666666667 0.0
3.333333333333334E-4 0.0057777777777777775 0.0
3.333333333333334E-4 0.005888888888888889 0.0
3.333333333333334E-4 0.006 0.0
3.333333333333334E-4 0.01711111111111111 0.0
3.333333333333334E-4 0.028222222222222225 0.0
3.333333333333334E-4 0.03933333333333333 0.0
3.333333333333334E-4 0.050444444444444445 0.0
3.333333333333334E-4 0.06155555555555556 0.0
3.333333333333334E-4 0.07266666666666667 0.0
3.333333333333334E-4 0.08377777777777778 0.0
3.333333333333334E-4 0.0948888888888889 0.0
3.333333333333334E-4 0.10600000000000001 0.0
3.333333333333334E-4 0.10611111111111113 0.0
3.333333333333334E-4 0.10622222222222223 0.0
3.333333333333334E-4 0.10633333333333335 0.0
3.333333333333334E-4 0.10644444444444445 0.0
3.333333333333334E-4 0.10655555555555557 0.0
3.333333333333334E-4 0.10666666666666667 0.0
3.333333333333334E-4 0.10677777777777779 0.0
3.333333333333334E-4 0.1068888888888889 0.0
3.333333333333334E-4 0.10700000000000001 0.0
4.4444444444444447E-4 0.0 0.0
4.4444444444444447E-4 3.846153846153846E-4 0.0
4.4444444444444447E-4 7.692307692307692E-4 0.0
4.4444444444444447E-4 0.0011538461538461537 0.0
4.4444444444444447E-4 0.0015384615384615385 0.0
4.4444444444444447E-4 0.0019230769230769232 0.0
4.4444444444444447E-4 0.0023076923076923075 0.0
4.4444444444444447E-4 0.002692307692307692 0.0
4.4444444444444447E-4 0.003076923076923077 0.0
4.4444444444444447E-4 0.0034615384615384616 0.0
4.4444444444444447E-4 0.0038461538461538464 0.0
4.4444444444444447E-4 0.004230769230769231 0.0
4.4444444444444447E-4 0.004615384615384615 0.0
4.4444444444444447E-4 0.005 0.0
4.4444444444444447E-4 0.005111111111111111 0.0
4.4444444444444447E-4 0.005222222222222223 0.0
4.4444444444444447E-4 0.005333333333333333 0.0
4.4444444444444447E-4 0.0054444444444444445 0.0
4.4444444444444447E-4 0.005555555555555556 0.0
4.4444444444444447E-4 0.005666666666666667 0.0
4.4444444444444447E-4 0.0057777777777777775 0.0
4.4444444444444447E-4 0.005888888888888889 0.0
4.4444444444444447E-4 0.006 0.0
4.4444444444444447E-4 0.01711111111111111 0.0
4.4444444444444447E-4 0.028222222222222225 0.0
4.4444444444444447E-4 0.03933333333333333 0.0
4.4444444444444447E-4 0.050444444444444445 0.0
4.4444444444444447E-4 0.06155555555555556 0.0
4.4444444444444447E-4 0.07266666666666667 0.0
4.4444444444444447E-4 0.08377777777777778 0.0
4.4444444444444447E-4 0.0948888888888889 0.0
4.4444444444444447E-4 0.10600000000000001 0.0
4.4444444444444447E-4 0.10611111111111113 0.0
4.4444444444444447E-4 0.10622222222222223 0.0
4.4444444444444447E-4 0.10633333333333335 0.0
4.4444444444444447E-4 0.10644444444444445 0.0
4.4444444444444447E-4 0.10655555555555557 0.0
4.4444444444444447E-4 0.10666666666666667 0.0
4.4444444444444447E-4 0.10677777777777779 0.0
4.4444444444444447E-4 0.1068888888888889 0.0
4.4444444444444447E-4 0.10700000000000001 0.0
5.555555555555556E-4 0.0 0.0
5.555555555555556E-4 3.846153846153846E-4 0.0
5.555555555555556E-4 7.692307692307692E-4 0.0
5.555555555555556E-4 0.0011538461538461537 0.0
5.555555555555556E-4 0.0015384615384615385 0.0
5.555555555555556E-4 0.0019230769230769232 0.0
5.555555555555556E-4 0.0023076923076923075 0.0
5.555555555555556E-4 0.002692307692307692 0.0
5.555555555555556E-4 0.003076923076923077 0.0
5.555555555555556E-4 0.0034615384615384616 0.0
5.555555555555556E-4 0.0038461538461538464 0.0
5.555555555555556E-4 0.004230769230769231 0.0
5.555555555555556E-4 0.004615384615384615 0.0
5.555555555555556E-4 0.005 0.0
5.555555555555556E-4 0.005111111111111111 0.0
5.555555555555556E-4 0.005222222222222223 0.0
5.555555555555556E-4 0.005333333333333333 0.0
5.555555555555556E-4 0.0054444444444444445 0.0
5.555555555555556E-4 0.005555555555555556 0.0
5.555555555555556E-4 0.005666666666666667 0.0
5.555555555555556E-4 0.0057777777777777775 0.0
5.555555555555556E-4 0.005888888888888889 0.0
5.555555555555556E-4 0.006 0.0
5.555555555555556E-4 0.01711111111111111 0.0
5.555555555555556E-4 0.028222222222222225 0.0
5.555555555555556E-4 0.03933333333333333 0.0
5.555555555555556E-4 0.050444444444444445 0.0
5.555555555555556E-4 0.06155555555555556 0.0
[...]
POINT_DATA 1353
SCALARS Temperatura float 1
LOOKUP_TABLE default
55.08346086089447
54.94146437456797
54.798510895902005
54.65456684353502
54.509593537942344
54.36353945662463
54.216335597698176
54.06788777416531
53.91806311019111
53.76666134769387
53.613369981605636
53.457615948881994
53.29852046057026
53.1327855887598
52.962320626552405
52.794935209402794
52.62792790526376
52.460664626754955
52.29265367927573
52.12347442187414
51.95272722697499
51.78001960859627
51.604964184862254
31.42411461640324
31.210859473747398
31.247657640438774
31.238648273394496
31.24090628270542
31.240152857427905
31.241163585951313
31.237059807237447
30.88755883381489
30.884857098743723
30.882213439937694
30.87962733527618
30.877098265853153
30.87462575111591
30.872209374614055
30.869848800455326
30.867543782202244
30.865294166714353
55.08561491954055
54.94361209617847
54.80065125671716
54.65670024803537
54.51172042857659
54.365660489777326
54.21845168903355
54.070000465559396
53.92017455741219
53.76877749350481
53.61549305590806
53.459791690755466
53.30065463905894
53.13572362302772
52.96855272693255
52.80155198426768
52.634815106035006
52.46774532719026
52.299905326717976
52.13088946624447
51.96030353849788
51.78775519517289
51.61285431124308
31.424546982016565
31.213719542196657
31.24988798501381
31.24104283501546
31.243257294724444
31.242517958467708
31.24351450890354
31.23945523589109
30.889816452175797
30.887114401429432
30.88447045796642
30.88188407755503
30.87935472323217
30.8768819014914
30.87446518788907
30.872104242467692
30.8697988172389
30.8675487587213
55.08790159674353
54.94589538210535
54.802929671727014
54.65897487091654
54.51399276757061
54.367932607350504
54.22072651464318
54.07228247718588
53.92247139230134
53.77110243714522
53.61787221800296
53.462277576514936
53.30333128812069
53.13941806917644
52.97389689339272
52.80815711821408
52.64217756188402
52.47572837537226
52.30845729029961
52.13999668027575
51.96996482316632
51.797968149539884
51.623606991491194
31.42116782509562
31.217716103769252
31.251978211046634
31.24363013813193
31.24571277826862
31.2450161051124
31.245969655373408
31.242045647653242
30.89213628288786
30.889434415146766
30.886790721850776
30.88420459031114
30.881675428531313
30.879202704607565
30.87678597152446
30.874424878860122
30.872119175484315
30.86986870786575
55.09032195125045
54.94831415391338
54.805346062090365
54.66139058953572
54.516410389181054
54.37035558375387
54.22315970308917
54.074733297787276
53.924952284035435
53.7736352767236
53.62049994124285
53.46507688888714
53.30650749971344
53.14363523735242
52.979491003909985
52.81501273065127
52.65012627097589
52.484650906207925
52.31831653442793
52.150793028128824
51.98171076189886
51.8106691006061
51.6372478193515
31.413966430898117
31.22285366577133
31.2539267264211
31.246410751999182
31.248272577036264
31.247647399502263
31.248528975509117
31.244831183808557
30.89451820705694
30.891817099342973
30.88917426214214
30.886588960332926
30.884060506588558
30.881588306463648
30.879171880237116
30.876810866028173
30.874505012477247
30.872254169076577
55.09287653256009
54.95086841092517
54.8079002686091
54.66394719637336
54.518973015585594
54.37292903287506
54.225750672150504
54.07735196280097
53.92761549732602
53.77637302427584
53.62336870747395
53.46818378251621
53.31011660423813
53.148309954287434
52.98550861488521
52.82235680365168
52.658754962876635
52.494539090843794
52.32947454574781
52.16325974555393
51.995531237835024
51.825870733862956
51.65381970304846
31.40292527841896
31.229139638756
31.255730880774472
31.249385603955115
31.250936414765743
31.25041199429851
31.251192371565963
31.247812054264667
30.896962014771994
30.894262386801877
30.891621139343123
30.889037345555813
30.886510176686915
30.88403895563383
30.881623170449732
30.879262457918514
30.87695657768035
30.87470538981951
55.09556559012664
54.95355811448774
54.8105920709582
54.66664439580366
54.5216802592371
54.37565242053678
54.228498622983956
54.080137148630136
53.93045874424109
53.77931125846047
53.62647036084298
53.47158205053295
53.314102064553225
53.15339808238032
52.99198332079052
52.8302492181364
52.66809574009394
52.50537637839951
52.34188482912543
52.177343301972805
52.01139118380571
51.84357951718291
51.67338403100435
31.38801971257711
31.236584430650748
31.257386937849457
31.252555987686048
31.253703892694187
31.253310093601
31.25395969718438
31.250988539185435
30.899467399734498
30.896770200362592
30.894131477499094
30.89155001565204
30.889024786693835
30.88655502478613
30.88414020904617
30.88178000681511
30.879474211048795
30.877222705366886
55.09838917177689
54.95638314706022
54.8134211848178
54.669481805990756
54.5245316267041
54.37852507429696
54.231402556162266
54.08308722630384
53.93347918148154
53.782444620834596
53.62979509474276
53.47525020721458
53.318415425824256
53.15885431972931
52.9988897792327
52.83866726662505
52.67810473633787
52.51708495118059
52.35543966770351
52.192928459421815
52.0292042672024
51.86377974238521
51.69602278903667
31.369217354980222
31.245201613494064
31.25889002740379
31.25592357731958
31.25657448531756
31.25634195443494
31.25683075625682
31.254360991568326
30.902033950694918
30.899340478666048
30.896705530832687
30.894127426459313
30.89160487439659
30.88913703522231
30.88672347937535
30.88436395936747
30.882058334307242
30.879806528673818
55.101347173834085
54.95934329998179
54.81638725567585
54.67245896103345
54.52752652378644
54.38154619436207
54.234461296337344
54.08620030314048
53.93667350858373
53.78576702795335
53.63333149659942
53.4791644593192
53.32301282512151
53.164627655564715
53.006169769607226
52.847536113413305
52.688676979659384
52.529518780005816
52.36995004844748
52.209798158078044
52.048783799935094
51.8863975728173
51.721842394276415
31.346477047583285
31.255008218072355
31.26023406181094
31.25949045134449
31.259547533370313
31.259507889119664
31.25980530121595
31.257929841118198
30.904661138463393
30.90197321385244
30.899343762007984
30.89677044603851
30.894251222337
30.891785671463957
30.889373576404438
30.887014843255365
30.884709433964648
30.882457332384355
55.1044393692804
54.96243827216553
54.81948985417273
54.675575312813386
54.53066426144629
54.384714866477225
54.23767351925454
54.08947427224129
53.940038084903485
53.78927184356826
53.637066998406816
53.483300198928596
53.327852812986315
53.17066161211057
53.01374369690672
52.856745264971366
52.69965898216574
52.54246732763144
52.38513514942525
52.22759551483623
52.06971599738727
51.911218346980476
51.75098092571676
31.319746877949278
31.266025277701107
31.261411584779125
31.26325913509436
31.262622231738884
31.262808268897537
31.26288303152696
31.261695595902854
30.90734831178387
30.904667188836342
30.902048261498024
30.899480393619807
30.896964872489555
30.894501765370972
30.892091182745826
30.889733240445178
30.887428033869636
30.885175621280926
55.10766542552989
54.96566767287012
54.82272847357363
54.67883023276802
54.53394406230436
54.38803007612906
54.241037780407495
54.09290686913232
53.94356904769983
53.79295207983816
53.640988403766386
53.48763276061095
53.33289536674926
53.176896140010975
53.021519004752655
52.86616160553257
52.710863579245384
52.555669839308585
52.40063291646014
52.245816285945516
52.09129946047525
51.93718656020967
32.58531225057077
32.58531225057077
32.58531225057077
32.58531225057077
32.58531225057077
32.58531225057077
32.58531225057077
32.58531225057077
32.58531225057077
32.58531225057077
30.907433617335503
30.904821410668323
30.902258973276247
30.899747047903283
30.897286239715744
30.89487702110988
30.89251974559559
30.890214656981748
30.887961895154724
55.7410329262256
55.60034742828505
55.46109492926152
55.32329005446678
55.1869570394836
55.052129858115535
54.91885240776396
54.78717866960675
54.65717267642665
54.52890796404942
54.40246586604286
54.277931432303234
54.15538515927416
54.03488893808377
53.91644632217316
53.79824449262479
53.68028210287882
53.562556454962206
53.445062863927326
53.327793755694564
53.21073728842331
53.093875037264276
32.58531225057077
32.58531225057077
32.58531225057077
32.58531225057077
32.58531225057077
32.58531225057077
32.58531225057077
32.58531225057077
32.58531225057077
32.58531225057077
31.274300516645766
31.27047179560498
31.26684818256422
31.26342910828362
31.260214091249992
31.257202736020826
31.254394729207565
31.251789836785125
31.249387902378743
56.16768559137397
56.02679695646328
55.88675252947003
55.747546926630605
55.60917097512081
55.47161157528108
55.33485150455665
55.198869183651865
55.06363844787233
54.929128409121354
54.795303580472705
54.66212459454655
54.529550014346626
54.397539691333264
54.266842707839025
54.13625522224267
54.00577510304055
53.875400548281284
53.74513025532749
53.614963662640235
53.484901320103425
53.35494551162007
32.58531225057077
32.58531225057077
32.58531225057077
32.58531225057077
32.58531225057077
32.58531225057077
32.58531225057077
32.58531225057077
32.58531225057077
32.58531225057077
31.27841664641889
31.27533726358558
31.272360927218404
31.26948790902015
31.266718433454884
31.264052678399946
31.261490776391543
31.259032815477354
31.256678839770355
56.390541153324556
56.24967649600961
56.10961451658368
55.97035692918711
55.83190652583381
55.69426724808619
55.55744428925487
55.42144422266001
55.286275145701715
55.15194681817583
55.018470749856185
54.88586014877882
54.75412959470642
54.62329431024271
54.493961447650484
54.36477359406365
54.235731867520045
54.106837308887876
53.97809083722781
53.84949318571036
53.721044802869265
53.592745685919525
32.58531225057077
32.58531225057077
32.58531225057077
32.58531225057077
32.58531225057077
32.58531225057077
32.58531225057077
32.58531225057077
32.58531225057077
32.58531225057077
31.27836580008583
31.27509571640362
31.271955091196446
31.268943781721557
31.266061663909195
31.26330863209493
31.26068459861022
31.25818949349517
31.25582326430808
56.516107877271224
56.37524164962254
56.23512253434706
56.09575019745906
55.95712396104124
55.81924277405412
55.682105170524544
55.54570921584652
55.41005244335452
55.275131786273576
55.1409435164184
55.007483212856734
54.87474579681594
54.742725667901034
54.61211307183767
54.48162733809442
54.35126799781846
54.221034598577944
54.09092671592151
53.96094397018459
53.83108605264178
53.70135276995461
32.58531225057077
32.58531225057077
32.58531225057077
32.58531225057077
32.58531225057077
32.58531225057077
32.58531225057077
32.58531225057077
32.58531225057077
32.58531225057077
31.278366061703817
31.275145772262434
31.272047926089183
31.269072540067135
31.26621962435595
31.263489182498233
31.260881211557507
31.258395702217026
31.25603263884648
56.5830071851257
56.44213997783601
56.30199053871231
56.16255909767818
56.023845946141115
55.885851447570246
55.74857605273799
55.61202031961026
55.47618493753854
55.34107075466137
55.206678805762415
55.073010334629174
54.94006680134017
54.80784986501306
54.67704992481637
54.54637895464412
54.4158371189943
54.28542457892185
54.155141489086404
54.0249879933792
53.894964218020505
53.765070259709766
32.58531225057077
32.58531225057077
32.58531225057077
32.58531225057077
32.58531225057077
32.58531225057077
32.58531225057077
32.58531225057077
32.58531225057077
32.58531225057077
31.2783704613156
31.275137122210275
31.2720280964823
31.269043345442256
31.26618283254694
31.263446523358635
31.260834385498192
31.258346388610757
31.2559825043424
56.6156877987784
56.4748208564458
56.334658700439604
56.1952014272565
56.0564490985097
55.9184017371455
55.78105932195241
55.64442178029294
55.50848897905858
55.37326071403981
55.238736698358565
55.10491655151975
54.971799791688696
54.83938583382675
54.70837661231566
54.57749397697319
54.44673787813039
54.31610826645576
54.1856050937345
54.05522831405599
53.92497788572723
53.79485377460605
32.58531225057077
32.58531225057077
32.58531225057077
32.58531225057077
32.58531225057077
32.58531225057077
32.58531225057077
32.58531225057077
32.58531225057077
32.58531225057077
31.278368138725465
31.275138283415515
31.272032233382795
31.26904996862694
31.26619146829716
31.26345671070852
31.26084567335918
31.2583583329431
31.255994665358834
56.625431437174676
56.48456428872285
56.34439751230512
56.204931245990956
56.0661656251004
55.92810078438358
55.79073686120305
55.65407399978723
55.51811235659932
55.38285210678163
55.248293451416515
55.114436624897515
54.98128190117512
54.848829597612934
54.71778250845698
54.58686215827664
54.45606858985487
54.32540184576784
54.1948619680247
54.06444899750306
53.93416297301989
53.80400392969069
32.58531225057077
32.58531225057077
32.58531225057077
32.58531225057077
32.58531225057077
32.58531225057077
32.58531225057077
32.58531225057077
32.58531225057077
32.58531225057077
31.278369167073897
31.275138174346882
31.27203115598235
31.26904808448406
31.266188932714
31.263453673882246
31.260842281536657
31.25835472955536
31.255990992141424
56.61568779877834
56.47482085644573
56.334658700439505
56.19520142725635
56.05644909850946
55.91840173714512
55.78105932195192
55.64442178029239
55.508488979057965
55.37326071403908
55.238736698357684
55.1049165515187
54.97179979168746
54.839385833825325
54.70837661231405
54.577493976971404
54.446737878128474
54.3161082664537
54.18560509373232
54.05522831405373
53.924977885724935
53.794853774603716
32.58531225057077
32.58531225057077
32.58531225057077
32.58531225057077
32.58531225057077
32.58531225057077
32.58531225057077
32.58531225057077
32.58531225057077
32.58531225057077
31.278368138722424
31.275138283412474
31.272032233379747
31.269049968623886
31.26619146829409
31.26345671070543
31.26084567335608
31.25835833294
31.25599466535574
56.583007185128174
56.44213997783848
56.30199053871479
56.162559097680685
56.02384594614367
55.885851447572875
55.74857605274064
55.61202031961288
55.47618493754113
55.34107075466396
55.206678805765065
55.0730103346319
54.940066801342965
54.80784986501597
54.67704992481938
54.54637895464721
54.41583711899746
54.28542457892511
54.15514148908973
54.02498799338255
53.89496421802385
53.7650702597131
32.58531225057077
32.58531225057077
32.58531225057077
32.58531225057077
32.58531225057077
32.58531225057077
32.58531225057077
32.58531225057077
32.58531225057077
32.58531225057077
31.278370461306192
31.27513712220082
31.272028096472802
31.269043345432703
31.26618283253733
31.263446523348986
31.260834385488515
31.258346388601066
31.255982504332703
56.51610787727513
56.37524164962646
56.23512253435104
56.095750197463076
55.957123961045234
55.81924277405804
55.682105170528445
55.54570921585041
55.41005244335837
55.275131786277306
55.14094351642196
55.007483212860095
54.87474579681911
54.742725667904004
54.61211307184046
54.481627338097084
54.35126799782103
54.22103459858045
54.09092671592396
53.96094397018699
53.83108605264416
53.70135276995697
32.58531225057077
32.58531225057077
32.58531225057077
32.58531225057077
32.58531225057077
32.58531225057077
32.58531225057077
32.58531225057077
32.58531225057077
32.58531225057077
31.278366061703146
31.275145772261766
31.272047926088526
31.269072540066496
31.266219624355326
31.26348918249764
31.260881211556924
31.25839570221644
31.256032638845898
56.390541153333714
56.24967649601876
56.109614516592806
55.9703569291962
55.83190652584287
55.69426724809524
55.55744428926388
55.42144422266898
55.286275145710704
55.151946818184854
55.01847074986524
54.88586014878791
54.75412959471552
54.62329431025182
54.493961447659586
54.364773594072744
54.2357318675291
54.10683730889682
53.9780908372367
53.84949318571918
53.721044802877984
53.59274568592815
32.58531225057077
32.58531225057077
32.58531225057077
32.58531225057077
32.58531225057077
32.58531225057077
32.58531225057077
32.58531225057077
32.58531225057077
32.58531225057077
31.27836580008436
31.275095716402138
31.271955091194954
31.26894378172006
31.266061663907696
31.26330863209342
31.260684598608705
31.258189493493663
31.25582326430658
56.167685591385435
56.026796956474755
55.88675252948155
55.74754692664219
55.609170975132464
55.4716115752928
55.33485150456845
55.19886918366372
55.063638447884216
54.92912840913328
54.79530358048468
54.66212459455859
54.52955001435877
54.397539691345514
54.26684270785142
54.13625522225517
54.00577510305316
53.875400548294046
53.74513025534032
53.61496366265314
53.48490132011638
53.35494551163303
32.58531225057077
32.58531225057077
32.58531225057077
32.58531225057077
32.58531225057077
32.58531225057077
32.58531225057077
32.58531225057077
32.58531225057077
32.58531225057077
31.278416646412726
31.275337263579377
31.272360927212173
31.26948790901389
31.26671843344861
31.264052678393668
31.261490776385276
31.259032815471112
31.256678839764113
55.74103292622832
55.600347428287776
55.46109492926426
55.32329005446954
55.18695703948635
55.05212985811824
54.91885240776662
54.78717866960938
54.65717267642926
54.528907964052024
54.40246586604549
54.277931432305856
54.155385159276776
54.034888938086375
53.916446322175744
53.79824449262735
53.68028210288134
53.56255645496464
53.44506286392976
53.32779375569697
53.21073728842565
53.09387503726657
32.58531225057077
32.58531225057077
32.58531225057077
32.58531225057077
32.58531225057077
32.58531225057077
32.58531225057077
32.58531225057077
32.58531225057077
32.58531225057077
31.27430051664631
31.270471795605527
31.266848182564768
31.263429108284168
31.260214091250525
31.25720273602133
31.254394729208038
31.25178983678557
31.24938790237918
55.10766542553002
54.965667672870254
54.82272847357375
54.67883023276812
54.533944062304435
54.388030076129176
54.24103778040768
54.09290686913254
53.943569047700116
53.792952079838514
53.64098840376679
53.48763276061141
53.33289536674977
53.176896140011486
53.02151900475319
52.86616160553316
52.71086357924604
52.55566983930934
52.40063291646092
52.24581628594633
52.0912994604761
51.93718656021055
32.58531225057077
32.58531225057077
32.58531225057077
32.58531225057077
32.58531225057077
32.58531225057077
32.58531225057077
32.58531225057077
32.58531225057077
32.58531225057077
30.907433617330742
30.90482141066358
30.902258973271547
30.899747047898597
30.897286239711082
30.89487702110525
30.89251974559099
30.890214656977168
30.887961895150134
55.10443936928059
54.96243827216565
54.81948985417288
54.67557531281345
54.530664261446404
54.38471486647737
54.23767351925473
54.08947427224151
53.940038084903826
53.78927184356865
53.63706699840723
53.48330019892914
53.32785281298692
53.17066161211114
53.01374369690731
52.85674526497197
52.69965898216639
52.54246732763216
52.38513514942601
52.227595514837034
52.0697159973881
51.911218346981315
51.75098092571762
31.31974687795278
31.26602527771431
31.26141158478398
31.26325913509895
31.26262223175728
31.262808268901797
31.262883031526176
31.261695595903795
30.90734831177908
30.904667188831553
30.902048261493253
30.89948039361506
30.89696487248484
30.894501765366282
30.892091182741158
30.889733240440503
30.88742803386499
30.88517562127627
55.101347173834284
54.95934329998195
54.81638725567598
54.67245896103347
54.52752652378655
54.3815461943622
54.23446129633752
54.08620030314071
53.93667350858411
53.78576702795379
53.63333149659983
53.47916445931979
53.323012825122156
53.1646276555653
53.006169769607865
52.84753611341392
52.68867697966004
52.529518780006555
52.36995004844823
52.20979815807881
52.04878379993591
51.886397572818154
51.72184239427728
31.34647704758683
31.25500821808561
31.260234061815805
31.2594904513491
31.259547533388773
31.259507889123913
31.259805301215163
31.257929841119076
30.90466113845857
30.901973213847626
30.899343762003177
30.896770446033738
30.89425122233223
30.891785671459232
30.889373576399723
30.887014843250647
30.884709433959912
30.882457332379616
55.0983891717771
54.956383147060464
54.81342118481791
54.66948180599082
54.52453162670417
54.37852507429706
54.23140255616239
54.08308722630411
53.933479181481964
53.78244462083503
53.6297950947432
53.47525020721519
53.31841542582492
53.15885431972997
52.998889779233316
52.83866726662567
52.67810473633849
52.51708495118128
52.35543966770421
52.19292845942257
52.02920426720322
51.86377974238603
51.69602278903746
31.36921735498385