# vtk DataFile Version 2.0
Niestacjonarne zagadnienie cieplne - ogrzewanie wody w garnku stalowym
ASCII
DATASET UNSTRUCTURED_GRID
POINTS 1353 float
0.0 0.0 0.0
0.0 3.846153846153846E-4 0.0
0.0 7.692307692307692E-4 0.0
0.0 0.0011538461538461537 0.0
0.0 0.0015384615384615385 0.0
0.0 0.0019230769230769232 0.0
0.0 0.0023076923076923075 0.0
0.0 0.002692307692307692 0.0
0.0 0.003076923076923077 0.0
0.0 0.0034615384615384616 0.0
0.0 0.0038461538461538464 0.0
0.0 0.004230769230769231 0.0
0.0 0.004615384615384615 0.0
0.0 0.005 0.0
0.0 0.005111111111111111 0.0
0.0 0.005222222222222223 0.0
0.0 0.005333333333333333 0.0
0.0 0.0054444444444444445 0.0
0.0 0.005555555555555556 0.0
0.0 0.005666666666666667 0.0
0.0 0.0057777777777777775 0.0
0.0 0.005888888888888889 0.0
0.0 0.006 0.0
0.0 0.01711111111111111 0.0
0.0 0.028222222222222225 0.0
0.0 0.03933333333333333 0.0
0.0 0.050444444444444445 0.0
0.0 0.06155555555555556 0.0
0.0 0.07266666666666667 0.0
0.0 0.08377777777777778 0.0
0.0 0.0948888888888889 0.0
0.0 0.10600000000000001 0.0
0.0 0.10611111111111113 0.0
0.0 0.10622222222222223 0.0
0.0 0.10633333333333335 0.0
0.0 0.10644444444444445 0.0
0.0 0.10655555555555557 0.0
0.0 0.10666666666666667 0.0
0.0 0.10677777777777779 0.0
0.0 0.1068888888888889 0.0
0.0 0.10700000000000001 0.0
1.1111111111111112E-4 0.0 0.0
1.1111111111111112E-4 3.846153846153846E-4 0.0
1.1111111111111112E-4 7.692307692307692E-4 0.0
1.1111111111111112E-4 0.0011538461538461537 0.0
1.1111111111111112E-4 0.0015384615384615385 0.0
1.1111111111111112E-4 0.0019230769230769232 0.0
1.1111111111111112E-4 0.0023076923076923075 0.0
1.1111111111111112E-4 0.002692307692307692 0.0
1.1111111111111112E-4 0.003076923076923077 0.0
1.1111111111111112E-4 0.0034615384615384616 0.0
1.1111111111111112E-4 0.0038461538461538464 0.0
1.1111111111111112E-4 0.004230769230769231 0.0
1.1111111111111112E-4 0.004615384615384615 0.0
1.1111111111111112E-4 0.005 0.0
1.1111111111111112E-4 0.005111111111111111 0.0
1.1111111111111112E-4 0.005222222222222223 0.0
1.1111111111111112E-4 0.005333333333333333 0.0
1.1111111111111112E-4 0.0054444444444444445 0.0
1.1111111111111112E-4 0.005555555555555556 0.0
1.1111111111111112E-4 0.005666666666666667 0.0
1.1111111111111112E-4 0.0057777777777777775 0.0
1.1111111111111112E-4 0.005888888888888889 0.0
1.1111111111111112E-4 0.006 0.0
1.1111111111111112E-4 0.01711111111111111 0.0
1.1111111111111112E-4 0.028222222222222225 0.0
1.1111111111111112E-4 0.03933333333333333 0.0
1.1111111111111112E-4 0.050444444444444445 0.0
1.1111111111111112E-4 0.06155555555555556 0.0
1.1111111111111112E-4 0.07266666666666667 0.0
1.1111111111111112E-4 0.08377777777777778 0.0
1.1111111111111112E-4 0.0948888888888889 0.0
1.1111111111111112E-4 0.10600000000000001 0.0
1.1111111111111112E-4 0.10611111111111113 0.0
1.1111111111111112E-4 0.10622222222222223 0.0
1.1111111111111112E-4 0.10633333333333335 0.0
1.1111111111111112E-4 0.10644444444444445 0.0
1.1111111111111112E-4 0.10655555555555557 0.0
1.1111111111111112E-4 0.10666666666666667 0.0
1.1111111111111112E-4 0.10677777777777779 0.0
1.1111111111111112E-4 0.1068888888888889 0.0
1.1111111111111112E-4 0.10700000000000001 0.0
2.2222222222222223E-4 0.0 0.0
2.2222222222222223E-4 3.846153846153846E-4 0.0
2.2222222222222223E-4 7.692307692307692E-4 0.0
2.2222222222222223E-4 0.0011538461538461537 0.0
2.2222222222222223E-4 0.0015384615384615385 0.0
2.2222222222222223E-4 0.0019230769230769232 0.0
2.2222222222222223E-4 0.0023076923076923075 0.0
2.2222222222222223E-4 0.002692307692307692 0.0
2.2222222222222223E-4 0.003076923076923077 0.0
2.2222222222222223E-4 0.0034615384615384616 0.0
2.2222222222222223E-4 0.0038461538461538464 0.0
2.2222222222222223E-4 0.004230769230769231 0.0
2.2222222222222223E-4 0.004615384615384615 0.0
2.2222222222222223E-4 0.005 0.0
2.2222222222222223E-4 0.005111111111111111 0.0
2.2222222222222223E-4 0.005222222222222223 0.0
2.2222222222222223E-4 0.005333333333333333 0.0
2.2222222222222223E-4 0.0054444444444444445 0.0
2.2222222222222223E-4 0.005555555555555556 0.0
2.2222222222222223E-4 0.005666666666666667 0.0
2.2222222222222223E-4 0.0057777777777777775 0.0
2.2222222222222223E-4 0.005888888888888889 0.0
2.2222222222222223E-4 0.006 0.0
2.2222222222222223E-4 0.01711111111111111 0.0
2.2222222222222223E-4 0.028222222222222225 0.0
2.2222222222222223E-4 0.03933333333333333 0.0
2.2222222222222223E-4 0.050444444444444445 0.0
2.2222222222222223E-4 0.06155555555555556 0.0
2.2222222222222223E-4 0.07266666666666667 0.0
2.2222222222222223E-4 0.08377777777777778 0.0
2.2222222222222223E-4 0.0948888888888889 0.0
2.2222222222222223E-4 0.10600000000000001 0.0
2.2222222222222223E-4 0.10611111111111113 0.0
2.2222222222222223E-4 0.10622222222222223 0.0
2.2222222222222223E-4 0.10633333333333335 0.0
2.2222222222222223E-4 0.10644444444444445 0.0
2.2222222222222223E-4 0.10655555555555557 0.0
2.2222222222222223E-4 0.10666666666666667 0.0
2.2222222222222223E-4 0.10677777777777779 0.0
2.2222222222222223E-4 0.1068888888888889 0.0
2.2222222222222223E-4 0.10700000000000001 0.0
3.333333333333334E-4 0.0 0.0
3.333333333333334E-4 3.846153846153846E-4 0.0
3.333333333333334E-4 7.692307692307692E-4 0.0
3.333333333333334E-4 0.0011538461538461537 0.0
3.333333333333334E-4 0.0015384615384615385 0.0
3.333333333333334E-4 0.0019230769230769232 0.0
3.333333333333334E-4 0.0023076923076923075 0.0
3.333333333333334E-4 0.002692307692307692 0.0
3.333333333333334E-4 0.003076923076923077 0.0
3.333333333333334E-4 0.0034615384615384616 0.0
3.333333333333334E-4 0.0038461538461538464 0.0
3.333333333333334E-4 0.004230769230769231 0.0
3.333333333333334E-4 0.004615384615384615 0.0
3.333333333333334E-4 0.005 0.0
3.333333333333334E-4 0.005111111111111111 0.0
3.333333333333334E-4 0.005222222222222223 0.0
3.333333333333334E-4 0.005333333333333333 0.0
3.333333333333334E-4 0.0054444444444444445 0.0
3.333333333333334E-4 0.005555555555555556 0.0
3.333333333333334E-4 0.005666666666666667 0.0
3.333333333333334E-4 0.0057777777777777775 0.0
3.333333333333334E-4 0.005888888888888889 0.0
3.333333333333334E-4 0.006 0.0
3.333333333333334E-4 0.01711111111111111 0.0
3.333333333333334E-4 0.028222222222222225 0.0
3.333333333333334E-4 0.03933333333333333 0.0
3.333333333333334E-4 0.050444444444444445 0.0
3.333333333333334E-4 0.06155555555555556 0.0
3.333333333333334E-4 0.07266666666666667 0.0
3.333333333333334E-4 0.08377777777777778 0.0
3.333333333333334E-4 0.0948888888888889 0.0
3.333333333333334E-4 0.10600000000000001 0.0
3.333333333333334E-4 0.10611111111111113 0.0
3.333333333333334E-4 0.10622222222222223 0.0
3.333333333333334E-4 0.10633333333333335 0.0
3.333333333333334E-4 0.10644444444444445 0.0
3.333333333333334E-4 0.10655555555555557 0.0
3.333333333333334E-4 0.10666666666666667 0.0
3.333333333333334E-4 0.10677777777777779 0.0
3.333333333333334E-4 0.1068888888888889 0.0
3.333333333333334E-4 0.10700000000000001 0.0
4.4444444444444447E-4 0.0 0.0
4.4444444444444447E-4 3.846153846153846E-4 0.0
4.4444444444444447E-4 7.692307692307692E-4 0.0
4.4444444444444447E-4 0.0011538461538461537 0.0
4.4444444444444447E-4 0.0015384615384615385 0.0
4.4444444444444447E-4 0.0019230769230769232 0.0
4.4444444444444447E-4 0.0023076923076923075 0.0
4.4444444444444447E-4 0.002692307692307692 0.0
4.4444444444444447E-4 0.003076923076923077 0.0
4.4444444444444447E-4 0.0034615384615384616 0.0
4.4444444444444447E-4 0.0038461538461538464 0.0
4.4444444444444447E-4 0.004230769230769231 0.0
4.4444444444444447E-4 0.004615384615384615 0.0
4.4444444444444447E-4 0.005 0.0
4.4444444444444447E-4 0.005111111111111111 0.0
4.4444444444444447E-4 0.005222222222222223 0.0
4.4444444444444447E-4 0.005333333333333333 0.0
4.4444444444444447E-4 0.0054444444444444445 0.0
4.4444444444444447E-4 0.005555555555555556 0.0
4.4444444444444447E-4 0.005666666666666667 0.0
4.4444444444444447E-4 0.0057777777777777775 0.0
4.4444444444444447E-4 0.005888888888888889 0.0
4.4444444444444447E-4 0.006 0.0
4.4444444444444447E-4 0.01711111111111111 0.0
4.4444444444444447E-4 0.028222222222222225 0.0
4.4444444444444447E-4 0.03933333333333333 0.0
4.4444444444444447E-4 0.050444444444444445 0.0
4.4444444444444447E-4 0.06155555555555556 0.0
4.4444444444444447E-4 0.07266666666666667 0.0
4.4444444444444447E-4 0.08377777777777778 0.0
4.4444444444444447E-4 0.0948888888888889 0.0
4.4444444444444447E-4 0.10600000000000001 0.0
4.4444444444444447E-4 0.10611111111111113 0.0
4.4444444444444447E-4 0.10622222222222223 0.0
4.4444444444444447E-4 0.10633333333333335 0.0
4.4444444444444447E-4 0.10644444444444445 0.0
4.4444444444444447E-4 0.10655555555555557 0.0
4.4444444444444447E-4 0.10666666666666667 0.0
4.4444444444444447E-4 0.10677777777777779 0.0
4.4444444444444447E-4 0.1068888888888889 0.0
4.4444444444444447E-4 0.10700000000000001 0.0
5.555555555555556E-4 0.0 0.0
5.555555555555556E-4 3.846153846153846E-4 0.0
5.555555555555556E-4 7.692307692307692E-4 0.0
5.555555555555556E-4 0.0011538461538461537 0.0
5.555555555555556E-4 0.0015384615384615385 0.0
5.555555555555556E-4 0.0019230769230769232 0.0
5.555555555555556E-4 0.0023076923076923075 0.0
5.555555555555556E-4 0.002692307692307692 0.0
5.555555555555556E-4 0.003076923076923077 0.0
5.555555555555556E-4 0.0034615384615384616 0.0
5.555555555555556E-4 0.0038461538461538464 0.0
5.555555555555556E-4 0.004230769230769231 0.0
5.555555555555556E-4 0.004615384615384615 0.0
5.555555555555556E-4 0.005 0.0
5.555555555555556E-4 0.005111111111111111 0.0
5.555555555555556E-4 0.005222222222222223 0.0
5.555555555555556E-4 0.005333333333333333 0.0
5.555555555555556E-4 0.0054444444444444445 0.0
5.555555555555556E-4 0.005555555555555556 0.0
5.555555555555556E-4 0.005666666666666667 0.0
5.555555555555556E-4 0.0057777777777777775 0.0
5.555555555555556E-4 0.005888888888888889 0.0
5.555555555555556E-4 0.006 0.0
5.555555555555556E-4 0.01711111111111111 0.0
5.555555555555556E-4 0.028222222222222225 0.0
5.555555555555556E-4 0.03933333333333333 0.0
5.555555555555556E-4 0.050444444444444445 0.0
5.555555555555556E-4 0.06155555555555556 0.0
[...]
POINT_DATA 1353
SCALARS Temperatura float 1
LOOKUP_TABLE default
89.1350460326802
88.99988858373617
88.86341868056236
88.72559884157967
88.58638354876389
88.44571073345988
88.30349563382302
88.15961998076914
88.01391296383842
87.86610887069567
87.71578695893973
87.56213114594328
87.40395792317337
87.23564715916262
87.05886346697169
86.88888634732807
86.72046609771925
86.55256579069066
86.38445853980758
86.21558379911653
86.04544414771901
85.87357226537165
85.69951871032227
65.85594187359686
65.6499043086571
65.68531241407798
65.67660043208494
65.67888572214306
65.67772307586341
65.68052460487506
65.66631783091016
64.5466581262347
64.53695090828134
64.52737470666398
64.51790945085472
64.50853625394709
64.49923822478605
64.49000105735885
64.48081340508048
64.4716670837135
64.46255716103074
89.13923676434243
89.0040734385961
88.86759671984083
88.72977056847311
88.59054953217
88.44987181986177
88.30765302056678
88.16377581668955
88.01807003907729
87.87027648515678
87.71996454435333
87.56640191587512
87.40811183453025
87.24136759290025
87.07119417378861
86.9019172230927
86.73395625584159
86.56634845110426
86.39847666175011
86.22981158514443
86.05986928583201
85.88818694243086
85.71431517384919
65.86344553404257
65.65978581297465
65.69457669027388
65.6860261197587
65.68826713689201
65.68712432741918
65.68988866008537
65.6758162472542
64.55574169041073
64.54604279619022
64.53647483285239
64.52701721314497
64.51765063296033
64.50835790528832
64.49912454271131
64.48993910567629
64.4807933729499
64.4716824027279
89.14357969282415
89.0084135419753
88.87193281522222
88.73410407148457
88.59488237540376
88.45420666140323
88.31199373636366
88.16812847305474
88.0224453114587
87.87469300424816
87.72446006149745
87.57105417281244
87.41303588925183
87.24814198986739
87.08102879420522
86.91400239232333
86.74724181272073
86.58052347700986
86.4134005137928
86.24542267755277
86.07613859890881
85.90509581943347
85.73184309469633
65.86719752160944
65.67076122048843
65.70368376909585
65.69562174976043
65.69772875491373
65.69664604931889
65.69929750695523
65.68563429275322
64.5647724277902
64.55510306437995
64.54556426629274
64.53613384916517
64.52679124381358
64.51751839360995
64.50830030373682
64.49912529649008
64.48998507335503
64.48087468502094
89.14807585280408
89.01290879049479
88.87642685971042
88.73859919352078
88.59938186330825
88.45871496315532
88.31651726372587
88.17267728722881
88.0270367242498
87.87935777185184
87.72926045633598
87.57609884169065
87.41865133059935
87.25550851544165
87.09069758452297
86.92570249752556
86.76058240132453
86.59520340116069
86.42927991362919
86.26243953955303
86.0942669226491
85.9243176261314
85.75213052686871
65.8671865468401
65.6828351545122
65.7126320280034
65.70538789793218
65.7072703931857
65.70628840520234
65.70875090177563
65.69577258923138
64.57374893847881
64.56413216235705
64.55464511365741
64.54526275061009
64.53596233147974
64.5267244054875
64.5175332545044
64.50837693708294
64.49924713260344
64.49013894454902
89.15272575306493
89.01755914126991
88.88107864685212
88.7432556687884
88.60404763832177
88.46339621561668
88.32122281488313
88.17742092122754
88.03184181335065
87.88426664459759
87.73435408691807
87.58153105602494
87.42483613647217
87.26335824411822
87.10058961321872
86.93755028138146
86.77422874783653
86.6105082459173
86.44616374320681
86.2808793606362
86.11426624189346
85.9458771809799
85.77522429718493
65.86339417552676
65.6960152107617
65.72141877193886
65.71532550482934
65.71689173405233
65.71605165339727
65.7182484263933
65.70623215007416
64.58266882204244
64.57313108873704
64.56372134924335
64.55441008971528
64.54517141264691
64.53598409803699
64.52683173748845
64.51770233560896
64.50858777429036
64.49948336549822
89.15752958590895
89.02236449648778
88.88588789029826
88.74807312084086
88.6088792028146
88.46824971621014
88.32610931177919
88.18235753667551
88.03685737449047
87.88941324995523
87.73972929476207
87.58732735696726
87.43149363439214
87.27163501333534
87.11082630855663
86.94974014704131
86.788336638196
86.62650805980357
86.46406475623097
86.30072836915166
86.1361271074397
85.96979554714243
85.80119090831646
65.8557945702771
65.71031203312907
65.73004021049948
65.72543588288934
65.72659232232044
65.72593615026716
65.72778947847803
65.71701441453921
64.59152855292581
64.58210189520099
64.57279970571136
64.56358575782397
64.55443000692352
64.54530951212101
64.53620771527513
64.52711317384822
64.51801843197939
64.50891928514257
89.16248732588639
89.02732466286662
88.89085422155533
88.75305106557799
88.61387592509085
88.47327458376064
88.33117540766229
88.18748488180223
88.04207941373396
87.89478990732908
87.7453721743901
87.59345567395677
87.43854780537627
87.28028949713858
87.12142590532818
86.9623234863369
86.80294192065571
86.64319394841385
86.48292821767562
86.32190985402562
86.1597894317536
85.99607264553721
85.8301183487331
65.84435398229652
65.72573945901972
65.73849141544046
65.73572072933717
65.73637156026305
65.73594235574002
65.73737325546894
65.72812130463103
64.60032327324816
64.59104878406127
64.58189147251362
64.57280503634492
64.5637547587899
64.55471710057095
64.54567691908355
64.53662443815557
64.52755357206375
64.51846098435071
89.16759878030021
89.03243933988246
88.89597718454185
88.7581889147286
88.61903704729485
88.47846977412756
88.33641952374695
88.19280034920155
88.04750329337598
87.90038795282487
87.75126645153549
87.59988094919622
87.44593542346902
87.28926874221929
87.13235536254597
86.97527043755822
86.81799293282967
86.66047148753245
86.502609358108
86.34424170406722
86.18509169691613
86.02465035307686
85.86211960935685
65.82902977852524
65.74231479198578
65.74676624297312
65.746182149078
65.7462286991157
65.74607084241397
65.74699872805498
65.73955531966455
64.60904644683025
64.59998076306886
64.59101610625731
64.58209161722868
64.57316869354474
64.56422811606801
64.55525879496943
64.5462541552665
64.5372103371774
64.52812530518193
89.17286361780597
89.03770811899446
88.90125623178795
88.76348597927087
88.62436169439248
88.48383409894427
88.34183988871781
88.19830104563297
88.05312390843082
87.90619796748928
87.7573941556595
87.60656769401405
87.45360067645404
87.29851487627788
87.1435512344912
86.98850050539755
86.83337395096227
86.67816953785517
86.52286386031513
86.36739809663355
86.21164497455052
86.05532838962016
85.89733961928769
65.80976854422411
65.76005932519675
65.75485718763494
65.75682269664449
65.75616282410213
65.75632231099208
65.75666459517161
65.75131969773525
64.61768926595681
64.60891628416302
64.60021247049467
64.5914803651378
64.58270192153091
64.57386846284025
64.56497605010722
64.55602283256923
64.54700795413983
64.53793105223642
89.1782813866663
89.04313048700001
88.9066907228424
88.76894147292494
88.62984888395637
88.48936624634999
88.34743458020407
88.20398387365194
88.05893586003994
87.91221005376204
87.76373642697855
87.61348100130894
87.46149207346676
87.30796659501671
87.15493249000939
87.00190268331457
86.84892678510874
86.69605908907855
86.54336070746346
86.39090278826686
86.23877158821243
86.08707710325316
68.13735255812061
68.13735255812061
68.13735255812061
68.13735255812061
68.13735255812061
68.13735255812061
68.13735255812061
68.13735255812061
68.13735255812061
68.13735255812061
64.61795326456526
64.60954166838137
64.6010176955148
64.59239069399531
64.58366761837755
64.57485364825398
64.56595254931722
64.55696688980305
64.54789817071274
90.0549270382913
89.92135891248823
89.78931910633904
89.65882498399802
89.52990535014675
89.40260059482607
89.27696288001626
89.15305624976875
89.03095642479072
88.91074981382353
88.7925308167493
88.67639569452218
88.56243084695136
88.4506954667617
88.3410347967686
88.23161591682302
88.12243650949819
88.01349307071897
87.90478032749448
87.79629036362884
87.68801124512207
87.57992468765173
68.13735255812061
68.13735255812061
68.13735255812061
68.13735255812061
68.13735255812061
68.13735255812061
68.13735255812061
68.13735255812061
68.13735255812061
68.13735255812061
65.78966598220495
65.7777016110021
65.76609391732791
65.7548393649289
65.74393521240916
65.73337934485049
65.7231701750559
65.71330658406801
65.70378788524589
90.63431648788507
90.50050460088784
90.36748676381875
90.23525648203803
90.10380272020954
89.97310974001671
89.84315687554108
89.71391827615358
89.58536267913618
89.45745333637339
89.33014834470094
89.20340185003278
89.07716672393933
88.95139875990705
88.826837965373
88.70236602185797
88.57798056574028
88.45367951407052
88.32946122003153
88.20532470716702
88.08127003846216
87.95729894332676
68.13735255812061
68.13735255812061
68.13735255812061
68.13735255812061
68.13735255812061
68.13735255812061
68.13735255812061
68.13735255812061
68.13735255812061
68.13735255812061
65.80436319942027
65.79471510863995
65.78510354733629
65.7755299014413
65.76599527025492
65.75650051260301
65.74704627410826
65.73763300373753
65.72826096385567
90.93969044568699
90.80590685886688
90.67285088816644
90.54052451813091
90.40893101098513
90.27807499160612
90.14796256698563
90.0186014733761
89.89000123586911
89.76217330850669
89.63513112898781
89.50888996151883
89.38346636385295
89.25887725750442
89.1357055422659
89.01266186606712
88.88974748168066
88.7669635794006
88.6443112463707
88.52179140468022
88.3994047131259
88.2771513995528
68.13735255812061
68.13735255812061
68.13735255812061
68.13735255812061
68.13735255812061
68.13735255812061
68.13735255812061
68.13735255812061
68.13735255812061
68.13735255812061
65.80425290177918
65.794017742488
65.78390166058873
65.77390414059887
65.76402476274076
65.75426319018008
65.74461916140861
65.73509248557495
65.72568303962463
91.11164411420316
90.97785868877648
90.84472553196952
90.71224419049786
90.58041379692011
90.44923303497643
90.31870009039686
90.18881258846184
90.05956752172413
89.93096117568543
89.80298906938414
89.67564594435797
89.54892584622282
89.42282230600456
89.29802132608214
89.17332648687504
89.0487372361089
88.92425303329999
88.79987336018529
88.67559773687252
88.55142574777722
88.42735708624652
68.13735255812061
68.13735255812061
68.13735255812061
68.13735255812061
68.13735255812061
68.13735255812061
68.13735255812061
68.13735255812061
68.13735255812061
68.13735255812061
65.80425386362388
65.7941720620017
65.78418740163492
65.77430002578672
65.7645100469619
65.75481755046276
65.745222596538
65.73572522171602
65.7263254396293
91.20350847253843
91.06972180923715
90.93654730128311
90.80398516864383
90.67203570197215
90.54069927517634
90.40997636341037
90.27986756635278
90.15037363613033
90.0214955081104
89.89323433033806
89.76559148290399
89.6385685754668
89.51216742084782
89.38707722659547
89.26209510908248
89.13722124746356
89.01245581884581
88.8877989956674
88.7632509415297
88.63881180438366
88.51448170466527
68.13735255812061
68.13735255812061
68.13735255812061
68.13735255812061
68.13735255812061
68.13735255812061
68.13735255812061
68.13735255812061
68.13735255812061
68.13735255812061
65.80426780364931
65.79414580806444
65.7841268020585
65.77421071298681
65.76439747775981
65.75468704184057
65.74507935863042
65.73557438908253
65.72617210146059
91.24843371909165
91.11464736001517
90.98145519897567
90.84885729857314
90.71685367864313
90.58544431176468
90.4546291167757
90.32440795024611
90.1947805959769
90.06574675289384
89.9373060223858
89.80945789742167
89.6822017566906
89.55553686431541
89.4301674364119
89.30490307973324
89.17974372750865
89.05468931281402
88.9297397692459
88.80489503203923
88.68015503994339
88.55551973854679
68.13735255812061
68.13735255812061
68.13735255812061
68.13735255812061
68.13735255812061
68.13735255812061
68.13735255812061
68.13735255812061
68.13735255812061
68.13735255812061
65.80426073476617
65.79414947054887
65.78413960682566
65.77423114069354
65.764424066016
65.75471837372618
65.74511405201578
65.73561108645569
65.7262094600722
91.26184091078788
91.12805429867731
90.99485586925597
90.86224573468917
90.7302240028005
90.5987907796617
90.46794617335692
90.33769029898549
90.20802328492151
90.07894528021063
89.95045646265312
89.82255704648442
89.6952472880995
89.56852748959027
89.44310332714116
89.31778433870853
89.19257056485247
89.06746204618234
88.9424588230542
88.81756093504649
88.69276842005532
88.56808131266398
68.13735255812061
68.13735255812061
68.13735255812061
68.13735255812061
68.13735255812061
68.13735255812061
68.13735255812061
68.13735255812061
68.13735255812061
68.13735255812061
65.80426393622297
65.79414916803375
65.78413632916632
65.77422538957894
65.76441632091084
65.75470909632335
65.74510369039969
65.73560007908036
65.72619823962198
91.24843371909147
91.11464736001497
90.98145519897542
90.84885729857282
90.71685367864266
90.58544431176398
90.45462911677485
90.32440795024516
90.19478059597586
90.0657467528926
89.93730602238428
89.80945789741986
89.6822017566885
89.555536864313
89.43016743640918
89.30490307973022
89.17974372750542
89.05468931281055
88.92973976924223
88.80489503203542
88.68015503993952
88.55551973854287
68.13735255812061
68.13735255812061
68.13735255812061
68.13735255812061
68.13735255812061
68.13735255812061
68.13735255812061
68.13735255812061
68.13735255812061
68.13735255812061
65.80426073475977
65.79414947054245
65.78413960681924
65.77423114068712
65.76442406600955
65.75471837371968
65.74511405200926
65.73561108644915
65.72620946006566
91.20350847254254
91.06972180924126
90.93654730128725
90.80398516864803
90.67203570197643
90.54069927518073
90.40997636341477
90.27986756635714
90.15037363613463
90.02149550811474
89.89323433034248
89.76559148290855
89.63856857547148
89.51216742085268
89.3870772266005
89.26209510908765
89.13722124746887
89.01245581885131
88.887798995673
88.76325094153536
88.63881180438928
88.51448170467089
68.13735255812061
68.13735255812061
68.13735255812061
68.13735255812061
68.13735255812061
68.13735255812061
68.13735255812061
68.13735255812061
68.13735255812061
68.13735255812061
65.80426780362956
65.7941458080446
65.78412680203854
65.77421071296673
65.76439747773962
65.7546870418203
65.74507935861008
65.73557438906217
65.72617210144023
91.11164411420975
90.9778586887831
90.84472553197621
90.71224419050459
90.58041379692682
90.449233034983
90.31870009040341
90.18881258846837
90.05956752173059
89.9309611756917
89.80298906939016
89.67564594436365
89.54892584622817
89.42282230600956
89.29802132608683
89.17332648687952
89.04873723611323
88.92425303330418
88.79987336018938
88.67559773687655
88.55142574778122
88.42735708625048
68.13735255812061
68.13735255812061
68.13735255812061
68.13735255812061
68.13735255812061
68.13735255812061
68.13735255812061
68.13735255812061
68.13735255812061
68.13735255812061
65.80425386362238
65.7941720620002
65.78418740163343
65.77430002578525
65.76451004696048
65.75481755046141
65.74522259653668
65.73572522171469
65.72632543962797
90.9396904457021
90.80590685888198
90.67285088818151
90.54052451814593
90.40893101100012
90.2780749916211
90.14796256700055
90.01860147339096
89.89000123588399
89.76217330852161
89.6351311290028
89.50888996153388
89.38346636386802
89.25887725751952
89.13570554228097
89.01266186608218
88.88974748169565
88.76696357941542
88.64431124638544
88.52179140469482
88.39940471314034
88.2771513995671
68.13735255812061
68.13735255812061
68.13735255812061
68.13735255812061
68.13735255812061
68.13735255812061
68.13735255812061
68.13735255812061
68.13735255812061
68.13735255812061
65.80425290177612
65.79401774248491
65.78390166058563
65.77390414059576
65.76402476273763
65.75426319017694
65.74461916140547
65.73509248557183
65.72568303962152
90.63431648790414
90.50050460090694
90.36748676383793
90.23525648205732
90.10380272022896
89.97310974003624
89.84315687556072
89.71391827617332
89.585362679156
89.45745333639329
89.33014834472091
89.20340185005283
89.07716672395952
88.95139875992743
88.82683796539361
88.70236602187877
88.57798056576125
88.45367951409172
88.32946122005285
88.20532470718845
88.08127003848367
87.95729894334828
68.13735255812061
68.13735255812061
68.13735255812061
68.13735255812061
68.13735255812061
68.13735255812061
68.13735255812061
68.13735255812061
68.13735255812061
68.13735255812061
65.80436319940729
65.79471510862689
65.78510354732315
65.77552990142809
65.76599527024167
65.75650051258977
65.74704627409504
65.73763300372435
65.72826096384252
90.0549270382961
89.92135891249302
89.78931910634381
89.6588249840028
89.52990535015151
89.40260059483079
89.2769628800209
89.15305624977334
89.03095642479529
88.91074981382812
88.79253081675391
88.67639569452679
88.56243084695596
88.45069546676628
88.34103479677312
88.2316159168275
88.12243650950262
88.01349307072327
87.90478032749877
87.79629036363309
87.68801124512618
87.57992468765575
68.13735255812061
68.13735255812061
68.13735255812061
68.13735255812061
68.13735255812061
68.13735255812061
68.13735255812061
68.13735255812061
68.13735255812061
68.13735255812061
65.78966598220605
65.7777016110032
65.76609391732899
65.75483936492999
65.74393521241024
65.7333793448515
65.72317017505685
65.7133065840689
65.70378788524677
89.17828138666678
89.04313048700051
88.90669072284288
88.76894147292535
88.62984888395674
88.4893662463504
88.34743458020462
88.20398387365255
88.05893586004068
87.91221005376283
87.76373642697945
87.6134810013099
87.46149207346777
87.30796659501777
87.15493249001051
87.00190268331578
86.84892678511004
86.69605908908
86.54336070746496
86.39090278826839
86.23877158821402
86.0870771032548
68.13735255812061
68.13735255812061
68.13735255812061
68.13735255812061
68.13735255812061
68.13735255812061
68.13735255812061
68.13735255812061
68.13735255812061
68.13735255812061
64.61795326455528
64.60954166837149
64.601017695505
64.59239069398555
64.58366761836783
64.5748536482443
64.5659525493076
64.55696688979346
64.54789817070315
89.1728636178065
89.037708118995
88.90125623178842
88.7634859792713
88.62436169439283
88.48383409894473
88.3418398887184
88.19830104563361
88.0531239084316
87.90619796749009
87.75739415566026
87.60656769401517
87.45360067645514
87.29851487627903
87.14355123449242
86.98850050539875
86.83337395096358
86.67816953785648
86.52286386031648
86.367398096635
86.21164497455204
86.05532838962172
85.8973396192893
65.80976854423169
65.76005932522463
65.75485718764534
65.75682269665431
65.75616282414086
65.756322311001
65.75666459517026
65.75131969773689
64.61768926594678
64.608916284153
64.60021247048469
64.59148036512788
64.58270192152108
64.57386846283046
64.56497605009744
64.55602283255945
64.54700795413011
64.53793105222667
89.16759878030084
89.03243933988298
88.89597718454223
88.758188914729
88.6190370472952
88.47846977412806
88.33641952374762
88.19280034920227
88.04750329337692
87.90038795282572
87.75126645153631
87.59988094919737
87.44593542347035
87.28926874222044
87.1323553625472
86.97527043755952
86.81799293283102
86.66047148753378
86.50260935810934
86.34424170406861
86.18509169691757
86.02465035307833
85.86211960935842
65.82902977853296
65.74231479201374
65.74676624298363
65.74618214908787
65.7462286991545
65.74607084242295
65.74699872805365
65.7395553196661
64.60904644682014
64.59998076305875
64.59101610624728
64.58209161721871
64.5731686935348
64.5642281160581
64.5552587949596
64.5462541552566
64.53721033716752
64.52812530517201
89.16248732588691
89.02732466286717
88.89085422155573
88.75305106557839
88.61387592509128
88.47327458376107
88.33117540766273
88.18748488180306
88.04207941373484
87.89478990732998
87.74537217439104
87.59345567395796
87.43854780537761
87.2802894971398
87.1214259053295
86.96232348633818
86.802941920657
86.6431939484152
86.48292821767694
86.32190985402703
86.15978943175499
85.99607264553865
85.83011834873452
65.8443539823044
65.72573945904787
65.73849141545097
65.73572072934729
65.736371560302
65.73594235574903
65.73737325546763
65.72812130463254
64.600323273238
64.59104878405114
64.58189147250351
64.57280503633487
64.56375475877991
64.554717100561
64.54567691907359
64.5366244381456
64.52755357205376
64.51846098434078
89.15752958590947
89.02236449648834
88.8858878902988
88.74807312084125
88.60887920281509
88.4682497162105
88.32610931177965
88.18235753667635
88.03685737449136
87.88941324995612