# vtk DataFile Version 2.0
Niestacjonarne zagadnienie cieplne - ogrzewanie wody w garnku stalowym
ASCII
DATASET UNSTRUCTURED_GRID
POINTS 1353 float
0.0 0.0 0.0
0.0 3.846153846153846E-4 0.0
0.0 7.692307692307692E-4 0.0
0.0 0.0011538461538461537 0.0
0.0 0.0015384615384615385 0.0
0.0 0.0019230769230769232 0.0
0.0 0.0023076923076923075 0.0
0.0 0.002692307692307692 0.0
0.0 0.003076923076923077 0.0
0.0 0.0034615384615384616 0.0
0.0 0.0038461538461538464 0.0
0.0 0.004230769230769231 0.0
0.0 0.004615384615384615 0.0
0.0 0.005 0.0
0.0 0.005111111111111111 0.0
0.0 0.005222222222222223 0.0
0.0 0.005333333333333333 0.0
0.0 0.0054444444444444445 0.0
0.0 0.005555555555555556 0.0
0.0 0.005666666666666667 0.0
0.0 0.0057777777777777775 0.0
0.0 0.005888888888888889 0.0
0.0 0.006 0.0
0.0 0.01711111111111111 0.0
0.0 0.028222222222222225 0.0
0.0 0.03933333333333333 0.0
0.0 0.050444444444444445 0.0
0.0 0.06155555555555556 0.0
0.0 0.07266666666666667 0.0
0.0 0.08377777777777778 0.0
0.0 0.0948888888888889 0.0
0.0 0.10600000000000001 0.0
0.0 0.10611111111111113 0.0
0.0 0.10622222222222223 0.0
0.0 0.10633333333333335 0.0
0.0 0.10644444444444445 0.0
0.0 0.10655555555555557 0.0
0.0 0.10666666666666667 0.0
0.0 0.10677777777777779 0.0
0.0 0.1068888888888889 0.0
0.0 0.10700000000000001 0.0
1.1111111111111112E-4 0.0 0.0
1.1111111111111112E-4 3.846153846153846E-4 0.0
1.1111111111111112E-4 7.692307692307692E-4 0.0
1.1111111111111112E-4 0.0011538461538461537 0.0
1.1111111111111112E-4 0.0015384615384615385 0.0
1.1111111111111112E-4 0.0019230769230769232 0.0
1.1111111111111112E-4 0.0023076923076923075 0.0
1.1111111111111112E-4 0.002692307692307692 0.0
1.1111111111111112E-4 0.003076923076923077 0.0
1.1111111111111112E-4 0.0034615384615384616 0.0
1.1111111111111112E-4 0.0038461538461538464 0.0
1.1111111111111112E-4 0.004230769230769231 0.0
1.1111111111111112E-4 0.004615384615384615 0.0
1.1111111111111112E-4 0.005 0.0
1.1111111111111112E-4 0.005111111111111111 0.0
1.1111111111111112E-4 0.005222222222222223 0.0
1.1111111111111112E-4 0.005333333333333333 0.0
1.1111111111111112E-4 0.0054444444444444445 0.0
1.1111111111111112E-4 0.005555555555555556 0.0
1.1111111111111112E-4 0.005666666666666667 0.0
1.1111111111111112E-4 0.0057777777777777775 0.0
1.1111111111111112E-4 0.005888888888888889 0.0
1.1111111111111112E-4 0.006 0.0
1.1111111111111112E-4 0.01711111111111111 0.0
1.1111111111111112E-4 0.028222222222222225 0.0
1.1111111111111112E-4 0.03933333333333333 0.0
1.1111111111111112E-4 0.050444444444444445 0.0
1.1111111111111112E-4 0.06155555555555556 0.0
1.1111111111111112E-4 0.07266666666666667 0.0
1.1111111111111112E-4 0.08377777777777778 0.0
1.1111111111111112E-4 0.0948888888888889 0.0
1.1111111111111112E-4 0.10600000000000001 0.0
1.1111111111111112E-4 0.10611111111111113 0.0
1.1111111111111112E-4 0.10622222222222223 0.0
1.1111111111111112E-4 0.10633333333333335 0.0
1.1111111111111112E-4 0.10644444444444445 0.0
1.1111111111111112E-4 0.10655555555555557 0.0
1.1111111111111112E-4 0.10666666666666667 0.0
1.1111111111111112E-4 0.10677777777777779 0.0
1.1111111111111112E-4 0.1068888888888889 0.0
1.1111111111111112E-4 0.10700000000000001 0.0
2.2222222222222223E-4 0.0 0.0
2.2222222222222223E-4 3.846153846153846E-4 0.0
2.2222222222222223E-4 7.692307692307692E-4 0.0
2.2222222222222223E-4 0.0011538461538461537 0.0
2.2222222222222223E-4 0.0015384615384615385 0.0
2.2222222222222223E-4 0.0019230769230769232 0.0
2.2222222222222223E-4 0.0023076923076923075 0.0
2.2222222222222223E-4 0.002692307692307692 0.0
2.2222222222222223E-4 0.003076923076923077 0.0
2.2222222222222223E-4 0.0034615384615384616 0.0
2.2222222222222223E-4 0.0038461538461538464 0.0
2.2222222222222223E-4 0.004230769230769231 0.0
2.2222222222222223E-4 0.004615384615384615 0.0
2.2222222222222223E-4 0.005 0.0
2.2222222222222223E-4 0.005111111111111111 0.0
2.2222222222222223E-4 0.005222222222222223 0.0
2.2222222222222223E-4 0.005333333333333333 0.0
2.2222222222222223E-4 0.0054444444444444445 0.0
2.2222222222222223E-4 0.005555555555555556 0.0
2.2222222222222223E-4 0.005666666666666667 0.0
2.2222222222222223E-4 0.0057777777777777775 0.0
2.2222222222222223E-4 0.005888888888888889 0.0
2.2222222222222223E-4 0.006 0.0
2.2222222222222223E-4 0.01711111111111111 0.0
2.2222222222222223E-4 0.028222222222222225 0.0
2.2222222222222223E-4 0.03933333333333333 0.0
2.2222222222222223E-4 0.050444444444444445 0.0
2.2222222222222223E-4 0.06155555555555556 0.0
2.2222222222222223E-4 0.07266666666666667 0.0
2.2222222222222223E-4 0.08377777777777778 0.0
2.2222222222222223E-4 0.0948888888888889 0.0
2.2222222222222223E-4 0.10600000000000001 0.0
2.2222222222222223E-4 0.10611111111111113 0.0
2.2222222222222223E-4 0.10622222222222223 0.0
2.2222222222222223E-4 0.10633333333333335 0.0
2.2222222222222223E-4 0.10644444444444445 0.0
2.2222222222222223E-4 0.10655555555555557 0.0
2.2222222222222223E-4 0.10666666666666667 0.0
2.2222222222222223E-4 0.10677777777777779 0.0
2.2222222222222223E-4 0.1068888888888889 0.0
2.2222222222222223E-4 0.10700000000000001 0.0
3.333333333333334E-4 0.0 0.0
3.333333333333334E-4 3.846153846153846E-4 0.0
3.333333333333334E-4 7.692307692307692E-4 0.0
3.333333333333334E-4 0.0011538461538461537 0.0
3.333333333333334E-4 0.0015384615384615385 0.0
3.333333333333334E-4 0.0019230769230769232 0.0
3.333333333333334E-4 0.0023076923076923075 0.0
3.333333333333334E-4 0.002692307692307692 0.0
3.333333333333334E-4 0.003076923076923077 0.0
3.333333333333334E-4 0.0034615384615384616 0.0
3.333333333333334E-4 0.0038461538461538464 0.0
3.333333333333334E-4 0.004230769230769231 0.0
3.333333333333334E-4 0.004615384615384615 0.0
3.333333333333334E-4 0.005 0.0
3.333333333333334E-4 0.005111111111111111 0.0
3.333333333333334E-4 0.005222222222222223 0.0
3.333333333333334E-4 0.005333333333333333 0.0
3.333333333333334E-4 0.0054444444444444445 0.0
3.333333333333334E-4 0.005555555555555556 0.0
3.333333333333334E-4 0.005666666666666667 0.0
3.333333333333334E-4 0.0057777777777777775 0.0
3.333333333333334E-4 0.005888888888888889 0.0
3.333333333333334E-4 0.006 0.0
3.333333333333334E-4 0.01711111111111111 0.0
3.333333333333334E-4 0.028222222222222225 0.0
3.333333333333334E-4 0.03933333333333333 0.0
3.333333333333334E-4 0.050444444444444445 0.0
3.333333333333334E-4 0.06155555555555556 0.0
3.333333333333334E-4 0.07266666666666667 0.0
3.333333333333334E-4 0.08377777777777778 0.0
3.333333333333334E-4 0.0948888888888889 0.0
3.333333333333334E-4 0.10600000000000001 0.0
3.333333333333334E-4 0.10611111111111113 0.0
3.333333333333334E-4 0.10622222222222223 0.0
3.333333333333334E-4 0.10633333333333335 0.0
3.333333333333334E-4 0.10644444444444445 0.0
3.333333333333334E-4 0.10655555555555557 0.0
3.333333333333334E-4 0.10666666666666667 0.0
3.333333333333334E-4 0.10677777777777779 0.0
3.333333333333334E-4 0.1068888888888889 0.0
3.333333333333334E-4 0.10700000000000001 0.0
4.4444444444444447E-4 0.0 0.0
4.4444444444444447E-4 3.846153846153846E-4 0.0
4.4444444444444447E-4 7.692307692307692E-4 0.0
4.4444444444444447E-4 0.0011538461538461537 0.0
4.4444444444444447E-4 0.0015384615384615385 0.0
4.4444444444444447E-4 0.0019230769230769232 0.0
4.4444444444444447E-4 0.0023076923076923075 0.0
4.4444444444444447E-4 0.002692307692307692 0.0
4.4444444444444447E-4 0.003076923076923077 0.0
4.4444444444444447E-4 0.0034615384615384616 0.0
4.4444444444444447E-4 0.0038461538461538464 0.0
4.4444444444444447E-4 0.004230769230769231 0.0
4.4444444444444447E-4 0.004615384615384615 0.0
4.4444444444444447E-4 0.005 0.0
4.4444444444444447E-4 0.005111111111111111 0.0
4.4444444444444447E-4 0.005222222222222223 0.0
4.4444444444444447E-4 0.005333333333333333 0.0
4.4444444444444447E-4 0.0054444444444444445 0.0
4.4444444444444447E-4 0.005555555555555556 0.0
4.4444444444444447E-4 0.005666666666666667 0.0
4.4444444444444447E-4 0.0057777777777777775 0.0
4.4444444444444447E-4 0.005888888888888889 0.0
4.4444444444444447E-4 0.006 0.0
4.4444444444444447E-4 0.01711111111111111 0.0
4.4444444444444447E-4 0.028222222222222225 0.0
4.4444444444444447E-4 0.03933333333333333 0.0
4.4444444444444447E-4 0.050444444444444445 0.0
4.4444444444444447E-4 0.06155555555555556 0.0
4.4444444444444447E-4 0.07266666666666667 0.0
4.4444444444444447E-4 0.08377777777777778 0.0
4.4444444444444447E-4 0.0948888888888889 0.0
4.4444444444444447E-4 0.10600000000000001 0.0
4.4444444444444447E-4 0.10611111111111113 0.0
4.4444444444444447E-4 0.10622222222222223 0.0
4.4444444444444447E-4 0.10633333333333335 0.0
4.4444444444444447E-4 0.10644444444444445 0.0
4.4444444444444447E-4 0.10655555555555557 0.0
4.4444444444444447E-4 0.10666666666666667 0.0
4.4444444444444447E-4 0.10677777777777779 0.0
4.4444444444444447E-4 0.1068888888888889 0.0
4.4444444444444447E-4 0.10700000000000001 0.0
5.555555555555556E-4 0.0 0.0
5.555555555555556E-4 3.846153846153846E-4 0.0
5.555555555555556E-4 7.692307692307692E-4 0.0
5.555555555555556E-4 0.0011538461538461537 0.0
5.555555555555556E-4 0.0015384615384615385 0.0
5.555555555555556E-4 0.0019230769230769232 0.0
5.555555555555556E-4 0.0023076923076923075 0.0
5.555555555555556E-4 0.002692307692307692 0.0
5.555555555555556E-4 0.003076923076923077 0.0
5.555555555555556E-4 0.0034615384615384616 0.0
5.555555555555556E-4 0.0038461538461538464 0.0
5.555555555555556E-4 0.004230769230769231 0.0
5.555555555555556E-4 0.004615384615384615 0.0
5.555555555555556E-4 0.005 0.0
5.555555555555556E-4 0.005111111111111111 0.0
5.555555555555556E-4 0.005222222222222223 0.0
5.555555555555556E-4 0.005333333333333333 0.0
5.555555555555556E-4 0.0054444444444444445 0.0
5.555555555555556E-4 0.005555555555555556 0.0
5.555555555555556E-4 0.005666666666666667 0.0
5.555555555555556E-4 0.0057777777777777775 0.0
5.555555555555556E-4 0.005888888888888889 0.0
5.555555555555556E-4 0.006 0.0
5.555555555555556E-4 0.01711111111111111 0.0
5.555555555555556E-4 0.028222222222222225 0.0
5.555555555555556E-4 0.03933333333333333 0.0
5.555555555555556E-4 0.050444444444444445 0.0
5.555555555555556E-4 0.06155555555555556 0.0
[...]
POINT_DATA 1353
SCALARS Temperatura float 1
LOOKUP_TABLE default
127.17762548892016
127.05010867353457
126.92088234269517
126.78990465750898
126.6571224599861
126.52246189931132
126.38582060661584
126.24705340831315
126.10594711338908
125.9621628840239
125.81515905511347
125.66384804243594
125.50670590522002
125.33551813918434
125.15167596610927
124.97880422980809
124.80880628925983
124.640195163085
124.4719812083685
124.30344757763298
124.13398759588388
123.96305033880098
123.79011703217823
104.32346591570531
104.12549588253182
104.15935085819712
104.15097117197529
104.15328692726985
104.15166709975011
104.15646932286134
104.13097543124833
102.15088902621528
102.13335522829826
102.11603393558781
102.09888323784845
102.08186372723041
102.0649401784635
102.04808276795501
102.0312678478465
102.01447836569852
101.99770405003302
127.18409160023626
127.05656942222393
126.92733688492166
126.79635360675688
126.6635665264244
126.52890214180368
126.39225853720579
126.25349185393219
126.11238957290209
125.96862240794107
125.82163194902076
125.6704593865335
125.51311627050806
125.34434708120975
125.17082006239325
124.9990009666376
124.82967329945649
124.66146528144873
124.4935588638323
124.32528658668059
124.15606427086203
123.98535036326878
123.81262928280609
104.33886969711187
104.14322179070294
104.17647350222363
104.16825209213113
104.17052276664724
104.16892919733468
104.17366850796547
104.148409364571
102.16759859434556
102.15008277221409
102.1327792397122
102.11564501729241
102.09863983397534
102.08172785257526
102.06487887435709
102.04806905917107
102.03128127798237
102.01450523941709
127.19073178064842
127.0632074100645
126.93397182882002
126.80298729865818
126.67020137300598
126.53554146657656
126.39890727353679
126.26015784261871
126.11908688367141
125.97537564314793
125.82849186604894
125.67753192139038
125.52055113483502
125.3545624102459
125.1856714343657
125.0172084510929
124.8495761654554
124.68255800545667
124.51560140966802
124.34816383109795
124.17971609122937
124.00973994174309
123.83772651788692
104.35058869320713
104.16199401310996
104.19341986842898
104.18567748144615
104.18781169535814
104.18629771468153
104.19084608567711
104.16630218104629
102.18412681188381
102.16667330827718
102.14943124529833
102.13235433845871
102.11539969982985
102.09852969395864
102.08171307305491
102.06492550444386
102.04814969897951
102.03137534945091
127.19754703794645
127.07002250581044
126.94078703593978
126.80980553763204
126.67702672936932
126.54237950123621
126.4057661349542
126.26705054261778
126.12603617797714
125.98242220810988
125.83571957694672
125.68508510986729
125.52889169116612
125.36544740734485
125.19989246885156
125.03432083713271
124.86894057581915
124.70367010280836
124.53820653958012
124.37213026185101
124.20497482372689
124.03624685425902
123.86543953994781
104.35861097250391
104.18181730264892
104.21018830029054
104.20324792311787
104.20515350052823
104.20377288413775
104.20800159570831
104.18465503936169
102.20047084778852
102.18312783349451
102.16599437848534
102.14901828532203
102.13215217282902
102.1153555237135
102.09859559532099
102.08184750937795
102.06509393019395
102.04832465895598
127.20453783542575
127.07701461942352
126.94778224703452
126.81680799278222
126.68404214886858
126.54941559843148
126.41283410404911
126.27416819875893
126.13323417749152
125.98975666863883
125.84329883265109
125.69311517910346
125.53795407738292
125.37684426688705
125.21411300552265
125.05120017550053
124.88819265427702
124.72502644710194
124.56148725804118
124.39724323630537
124.23187714542539
124.06490947426208
123.8958195535238
104.36291708063231
104.20269946186473
104.22677605283086
104.22096437246378
104.22254781825771
104.22135508208224
104.22513426194261
104.20346985055575
102.21662585434933
102.19944853724236
102.18247698610723
102.16564974936406
102.14891292240674
102.13222233447036
102.11554381745991
102.0988523803812
102.08213110401427
102.06537021911383
127.21170430153893
127.08418358699817
126.9549571019939
126.82399419736977
126.69124701089035
126.5566488674498
126.42010979082902
126.28150839755696
126.14067665421142
125.99737047233707
125.85121406154617
125.70159056834116
125.54759678169223
125.38868339208878
125.22855260114171
125.06819115844803
124.90762636677938
124.74679383647614
124.58552251220758
124.42353340199828
124.26044222784331
124.09576517085706
123.92893877472585
104.36347985941721
104.22465139822022
104.24317927517484
104.2388281628635
104.23999413031147
104.23904483498782
104.24224297263574
104.22274934883717
102.23258470942265
102.21563984957045
102.19889318404753
102.18226937137052
102.16570594936971
102.14915520293373
102.13258265691074
102.11596445667782
102.0992850479117
102.08253565876257
127.21904632897261
127.0915291306357
126.96231113828637
126.83136355304568
126.69864052927048
126.56407819392066
126.42759146051232
126.28906819145112
126.14835832871182
126.00525334430117
125.85944677889856
125.71046738163177
125.55771299039931
125.40091096145721
125.24327817537619
125.08542796224157
124.92736661947232
124.76904037846735
124.61031675917918
124.45096709082797
124.29063930496275
124.12883132595935
123.9648918979142
104.36026402917688
104.24768724552492
104.25939297430173
104.25684101733847
104.25749175827754
104.2568428294668
104.25932624769234
104.24249720912053
102.24833758730318
102.2317107362165
102.21526659044557
102.19890899604981
102.18256589278171
102.16618838082402
102.1497448799896
102.13321496854972
102.11658591914586
102.09985075216412
127.22656362557754
127.09905084718375
126.96984378635852
126.83891533482814
126.70622176331888
126.57170226071987
126.435277083595
126.29684417454583
126.15627306932333
126.01339373776023
125.8679752789611
125.71969797641346
125.56821784518037
125.41347185165115
125.25828481832444
125.10293097075684
124.94742130823201
124.79172930288264
124.63577465953001
124.47940123730056
124.32233497985386
124.16406737205025
124.00379925788778
104.35322530912586
104.2718246119852
104.27541094370962
104.27500507029605
104.275039853406
104.27474992890227
104.27638218443082
104.26271824291013
102.26387124073764
102.24768027727936
102.23163788216308
102.21561781446438
102.19954062780576
102.1833660998078
102.16707099340626
102.1506414928803
102.13406946876675
102.11735062947857
127.23425574345659
127.10674820805525
126.97755436678884
126.8466486962795
126.71398963020779
126.57951957324468
126.4431643893063
126.3048325751017
126.16441413509924
126.02177912492525
125.8767755554885
125.72923470803958
125.5790394877824
125.42630663260557
125.27352712667705
125.12065320334945
124.96771690026779
124.81473348689151
124.66169268045161
124.50854472109405
124.35516809530326
124.20128909661183
124.04581343620573
104.34230860635715
104.2970850809816
104.29122562303985
104.29332290887814
104.29263737840938
104.29276720207271
104.29340836398634
104.28341873831663
102.2791677495248
102.2635888991803
102.24808700605132
102.23246816861891
102.21669274030083
102.20074227525244
102.18460831043072
102.16828679796998
102.15177581876995
102.13507454007487
127.24212209775818
127.11462056323536
126.98544208973948
126.8545626749195
126.72194291843164
126.5875284874396
126.45125092140744
126.3130293650814
126.17277441103289
126.03039635750032
125.88582242156659
125.73903122742354
125.59011361512836
125.43935259821254
125.28893694569398
125.13850835457676
124.98812757705724
124.8378593863033
124.68777448161707
124.53795258276772
124.38848748058409
124.2394957350516
107.8563851230672
107.8563851230672
107.8563851230672
107.8563851230672
107.8563851230672
107.8563851230672
107.8563851230672
107.8563851230672
107.8563851230672
107.8563851230672
102.27963138520555
102.26474066992334
102.24955642601188
102.23409761542013
102.21837828630807
102.20240887719844
102.18619696591094
102.16974771755599
102.15306415378708
128.3905567666848
128.2649402271541
128.1409585551596
128.01863217463244
127.89799499474647
127.77909457361085
127.66199230619344
127.54676347853909
127.43349686880522
127.32229326700411
127.21326167030084
127.10651086418571
127.00213384319851
126.900186784872
126.80033804042141
126.70073221697574
126.60136591239502
126.50223472197167
126.40333271570596
126.30465159515474
126.20617932333936
126.10789777294082
107.8563851230672
107.8563851230672
107.8563851230672
107.8563851230672
107.8563851230672
107.8563851230672
107.8563851230672
107.8563851230672
107.8563851230672
107.8563851230672
104.35052344338025
104.32946986745141
104.30894230217999
104.28893389653476
104.26943938435623
104.25045472971108
104.23197692229122
104.2140038544845
104.19653424723177
129.1405815521188
129.01467586643963
128.8895082515164
128.76507097162335
128.64135091059327
128.51832938215193
128.3959818733881
128.27427776165638
128.15318008862872
128.03264555926475
127.91262510205442
127.79306561582733
127.67391361353769
127.5551203549402
127.43741568010667
127.31977679975749
127.20220109089507
127.08468615658299
126.96722996542715
126.84983107736214
126.73248901134103
126.61520487721724
107.8563851230672
107.8563851230672
107.8563851230672
107.8563851230672
107.8563851230672
107.8563851230672
107.8563851230672
107.8563851230672
107.8563851230672
107.8563851230672
104.37704190745582
104.36005521032098
104.34303072804377
104.32597109138275
104.30887837701192
104.29175420451857
104.27459979274985
104.25741599389467
104.24020331415085
129.53814280121648
129.41227024481645
129.28704150361543
129.16245886422385
129.03852611412634
128.9152486415102
128.79263357401373
128.6706899469699
128.54942888030993
128.42886372068023
128.30901005941953
128.18988545761817
128.07150868253902
127.95389855338746
127.83761084625372
127.72143222956008
127.60536410654085
127.4894078343643
127.37356468789213
127.25783580020891
127.14222206495315
127.02672396756647
107.8563851230672
107.8563851230672
107.8563851230672
107.8563851230672
107.8563851230672
107.8563851230672
107.8563851230672
107.8563851230672
107.8563851230672
107.8563851230672
104.37686518962683
104.35884859934433
104.340939487256
104.32313692145082
104.30544015178346
104.28784858315446
104.27036175984036
104.25297935592879
104.23570116947623
129.76191792702537
129.63604323229
129.51071490563322
129.38593236046347
129.26169451755055
129.13799976425213
129.0148458970773
128.89223004948232
128.77014860970422
128.64859713942886
128.52757031648906
128.40706194650582
128.28706509661
128.16757232717507
128.04926487055525
127.93104041492434
127.81289831474882
127.69483793111203
127.57685864088214
127.45895985212901
127.3411410298205
127.22340174064298
107.8563851230672
107.8563851230672
107.8563851230672
107.8563851230672
107.8563851230672
107.8563851230672
107.8563851230672
107.8563851230672
107.8563851230672
107.8563851230672
104.37686693375751
104.35911940290649
104.34144074434789
104.32383124253737
104.30629112432025
104.28882056634113
104.27141969943956
104.25408861136255
104.23682734843524
129.8816716541005
129.75579543297934
129.63041343609225
129.50552587225562
129.38113303122398
129.25723529848614
129.13383317632585
129.01092731088693
128.8885185242655
128.76660784909092
128.64519655972666
128.52428618829725
128.40387851130097
128.2839755129788
128.16526503998085
128.04663931231073
127.92809852543496
127.80964287433048
127.69127255123318
127.57298774169941
127.45478861789151
127.33667532669733
107.8563851230672
107.8563851230672
107.8563851230672
107.8563851230672
107.8563851230672
107.8563851230672
107.8563851230672
107.8563851230672
107.8563851230672
107.8563851230672
104.37689153239833
104.35907348179042
104.34133459628684
104.32367476530746
104.30609389610454
104.28859191168593
104.27116874956666
104.2538243609892
104.23655871043853
129.94027560350764
129.81439973047202
129.6889945661587
129.5640601352702
129.43959641091323
129.31560330931458
129.19208068222693
129.06902830699525
128.9464458744298
128.82433297505054
128.70268908520308
128.58151355624898
128.46080561078708
128.3405643441298
128.22149649172542
128.10250968469987
127.98360383711368
127.8647788623248
127.74603467354508
127.62737118488002
127.50878831316311
127.39028598127082
107.8563851230672
107.8563851230672
107.8563851230672
107.8563851230672
107.8563851230672
107.8563851230672
107.8563851230672
107.8563851230672
107.8563851230672
107.8563851230672
104.37687916092705
104.35907993872338
104.34135708485572
104.32371061552188
104.30614054102391
104.28864686639173
104.2712295917639
104.25388871262862
104.23662421997545
129.95777537537194
129.83189919688647
129.70648592321223
129.5815356375462
129.45704841693777
129.33302433533692
129.20946346800878
129.08636589737355
128.96373172026114
128.84156105637217
128.71985405727955
128.59861091445472
128.47783186440967
128.35751719187826
128.238375762864
128.1193154261687
128.0003362198061
127.8814381821244
127.76262135156809
127.64388576619868
127.52523146281705
127.40665847534451
107.8563851230672
107.8563851230672
107.8563851230672
107.8563851230672
107.8563851230672
107.8563851230672
107.8563851230672
107.8563851230672
107.8563851230672
107.8563851230672
104.37688479019607
104.3590794200894
104.34135134905311
104.32370054420123
104.30612697580652
104.28863061697562
104.27121144344835
104.25386943346936
104.2366045677068
129.94027560350736
129.8143997304717
129.6889945661583
129.5640601352697
129.4395964109125
129.31560330931356
129.19208068222565
129.06902830699383
128.94644587442824
128.82433297504872
128.7026890852009
128.58151355624636
128.460805610784
128.3405643441263
128.2214964917215
128.10250968469552
127.98360383710902
127.8647788623198
127.74603467353978
127.62737118487452
127.50878831315754
127.39028598126515
107.8563851230672
107.8563851230672
107.8563851230672
107.8563851230672
107.8563851230672
107.8563851230672
107.8563851230672
107.8563851230672
107.8563851230672
107.8563851230672
104.37687916091716
104.35907993871348
104.34135708484578
104.32371061551191
104.30614054101389
104.28864686638164
104.27122959175374
104.25388871261846
104.23662421996531
129.8816716541063
129.75579543298514
129.63041343609808
129.50552587226153
129.38113303123
129.2572352984923
129.13383317633208
129.0109273108931
128.88851852427157
128.76660784909703
128.6451965597329
128.52428618830368
128.40387851130757
128.28397551298565
128.16526503998796
128.0466393123181
127.92809852544252
127.80964287433831
127.69127255124114
127.57298774170744
127.45478861789951
127.33667532670528
107.8563851230672
107.8563851230672
107.8563851230672
107.8563851230672
107.8563851230672
107.8563851230672
107.8563851230672
107.8563851230672
107.8563851230672
107.8563851230672
104.37689153236657
104.35907348175851
104.34133459625477
104.3236747652752
104.30609389607208
104.28859191165333
104.27116874953398
104.25382436095649
104.23655871040582
129.76191792703483
129.6360432322995
129.51071490564286
129.3859323604732
129.26169451756024
129.13799976426162
129.01484589708676
128.89223004949176
128.77014860971354
128.64859713943792
128.52757031649773
128.407061946514
128.2870650966177
128.16757232718228
128.04926487056207
127.93104041493082
127.81289831475509
127.69483793111812
127.57685864088809
127.45895985213484
127.34114102982628
127.22340174064868
107.8563851230672
107.8563851230672
107.8563851230672
107.8563851230672
107.8563851230672
107.8563851230672
107.8563851230672
107.8563851230672
107.8563851230672
107.8563851230672
104.37686693375535
104.35911940290434
104.34144074434579
104.32383124253532
104.30629112431826
104.28882056633923
104.27141969943769
104.25408861136064
104.23682734843332
129.53814280123834
129.4122702448383
129.28704150363723
129.16245886424556
129.038526114148
128.91524864153183
128.79263357403528
128.67068994699136
128.54942888033142
128.42886372070177
128.30901005944116
128.18988545763986
128.07150868256073
127.95389855340919
127.83761084627545
127.7214322295818
127.60536410656243
127.48940783438564
127.37356468791333
127.25783580022997
127.14222206497395
127.02672396758707
107.8563851230672
107.8563851230672
107.8563851230672
107.8563851230672
107.8563851230672
107.8563851230672
107.8563851230672
107.8563851230672
107.8563851230672
107.8563851230672
104.37686518962192
104.35884859933938
104.340939487251
104.32313692144582
104.30544015177844
104.28784858314941
104.27036175983531
104.25297935592377
104.23570116947123
129.14058155214624
129.0146758664671
128.88950825154396
128.76507097165106
128.64135091062116
128.51832938217996
128.3959818734163
128.2742777616847
128.1531800886571
128.03264555929323
127.91262510208297
127.79306561585602
127.6739136135666
127.55512035496938
127.43741568013611
127.31977679978719
127.20220109092504
127.08468615661329
126.96722996545766
126.84983107739285
126.73248901137185
126.61520487724808
107.8563851230672
107.8563851230672
107.8563851230672
107.8563851230672
107.8563851230672
107.8563851230672
107.8563851230672
107.8563851230672
107.8563851230672
107.8563851230672
104.37704190743514
104.36005521030015
104.34303072802284
104.32597109136172
104.30887837699085
104.29175420449748
104.2745997927288
104.25741599387369
104.24020331412989
128.39055676669167
128.26494022716102
128.14095855516655
128.0186321746394
127.89799499475338
127.7790945736177
127.66199230620018
127.54676347854576
127.43349686881184
127.32229326701074
127.21326167030752
127.1065108641924
127.0021338432052
126.90018678487866
126.800338040428
126.70073221698226
126.60136591240146
126.50223472197791
126.40333271571215
126.30465159516083
126.20617932334527
126.10789777294661
107.8563851230672
107.8563851230672
107.8563851230672
107.8563851230672
107.8563851230672
107.8563851230672
107.8563851230672
107.8563851230672
107.8563851230672
107.8563851230672
104.3505234433821
104.32946986745327
104.30894230218182
104.28893389653658
104.26943938435802
104.25045472971276
104.23197692229282
104.21400385448601
104.19653424723323
127.24212209775878
127.11462056323597
126.98544208974
126.85456267491992
126.72194291843206
126.58752848744008
126.45125092140809
126.31302936508216
126.1727744110338
126.03039635750132
125.88582242156765
125.73903122742473
125.59011361512968
125.43935259821394
125.28893694569544
125.13850835457835
124.98812757705899
124.83785938630525
124.6877744816191
124.53795258276985
124.38848748058635
124.23949573505392
107.8563851230672
107.8563851230672
107.8563851230672
107.8563851230672
107.8563851230672
107.8563851230672
107.8563851230672
107.8563851230672
107.8563851230672
107.8563851230672
102.27963138519006
102.26474066990797
102.24955642599663
102.23409761540495
102.21837828629295
102.2024088771834
102.18619696589602
102.16974771754111
102.1530641537722
127.2342557434572
127.10674820805588
126.97755436678938
126.8466486962799
126.71398963020818
126.57951957324521
126.443164389307
126.30483257510261
126.16441413510022
126.02177912492637
125.87677555548949
125.72923470804093
125.57903948778393
125.42630663260712
125.27352712667867
125.12065320335113
124.96771690026952
124.81473348689339
124.6616926804536
124.5085447210961
124.3551680953054
124.20128909661409
124.04581343620808
104.34230860636998
104.29708508102568
104.29122562305652
104.29332290889343
104.29263737847063
104.29276720208668
104.29340836398411
104.28341873831934
102.27916774950926
102.26358889916472
102.2480870060358
102.2324681686035
102.21669274028545
102.20074227523713
102.1846083104155
102.16828679795482
102.15177581875483
102.13507454005972
127.22656362557828
127.09905084718432
126.96984378635901
126.83891533482853
126.70622176331935
126.57170226072029
126.43527708359578
126.29684417454672
126.15627306932443
126.01339373776138
125.86797527896212
125.71969797641482
125.56821784518193
125.41347185165277
125.25828481832615
125.10293097075852
124.94742130823374
124.79172930288452
124.63577465953193
124.4794012373025
124.3223349798559
124.16406737205244
124.00379925789014
104.35322530913886
104.27182461202948
104.27541094372629
104.27500507031156
104.27503985346732
104.27474992891635
104.2763821844285
104.2627182429128
102.26387124072197
102.24768027726364
102.23163788214742
102.21561781444879
102.19954062779026
102.18336609979235
102.16707099339094
102.15064149286496
102.13406946875138