# vtk DataFile Version 2.0
Niestacjonarne zagadnienie cieplne - ogrzewanie wody w garnku stalowym
ASCII
DATASET UNSTRUCTURED_GRID
POINTS 1353 float
0.0 0.0 0.0
0.0 3.846153846153846E-4 0.0
0.0 7.692307692307692E-4 0.0
0.0 0.0011538461538461537 0.0
0.0 0.0015384615384615385 0.0
0.0 0.0019230769230769232 0.0
0.0 0.0023076923076923075 0.0
0.0 0.002692307692307692 0.0
0.0 0.003076923076923077 0.0
0.0 0.0034615384615384616 0.0
0.0 0.0038461538461538464 0.0
0.0 0.004230769230769231 0.0
0.0 0.004615384615384615 0.0
0.0 0.005 0.0
0.0 0.005111111111111111 0.0
0.0 0.005222222222222223 0.0
0.0 0.005333333333333333 0.0
0.0 0.0054444444444444445 0.0
0.0 0.005555555555555556 0.0
0.0 0.005666666666666667 0.0
0.0 0.0057777777777777775 0.0
0.0 0.005888888888888889 0.0
0.0 0.006 0.0
0.0 0.01711111111111111 0.0
0.0 0.028222222222222225 0.0
0.0 0.03933333333333333 0.0
0.0 0.050444444444444445 0.0
0.0 0.06155555555555556 0.0
0.0 0.07266666666666667 0.0
0.0 0.08377777777777778 0.0
0.0 0.0948888888888889 0.0
0.0 0.10600000000000001 0.0
0.0 0.10611111111111113 0.0
0.0 0.10622222222222223 0.0
0.0 0.10633333333333335 0.0
0.0 0.10644444444444445 0.0
0.0 0.10655555555555557 0.0
0.0 0.10666666666666667 0.0
0.0 0.10677777777777779 0.0
0.0 0.1068888888888889 0.0
0.0 0.10700000000000001 0.0
1.1111111111111112E-4 0.0 0.0
1.1111111111111112E-4 3.846153846153846E-4 0.0
1.1111111111111112E-4 7.692307692307692E-4 0.0
1.1111111111111112E-4 0.0011538461538461537 0.0
1.1111111111111112E-4 0.0015384615384615385 0.0
1.1111111111111112E-4 0.0019230769230769232 0.0
1.1111111111111112E-4 0.0023076923076923075 0.0
1.1111111111111112E-4 0.002692307692307692 0.0
1.1111111111111112E-4 0.003076923076923077 0.0
1.1111111111111112E-4 0.0034615384615384616 0.0
1.1111111111111112E-4 0.0038461538461538464 0.0
1.1111111111111112E-4 0.004230769230769231 0.0
1.1111111111111112E-4 0.004615384615384615 0.0
1.1111111111111112E-4 0.005 0.0
1.1111111111111112E-4 0.005111111111111111 0.0
1.1111111111111112E-4 0.005222222222222223 0.0
1.1111111111111112E-4 0.005333333333333333 0.0
1.1111111111111112E-4 0.0054444444444444445 0.0
1.1111111111111112E-4 0.005555555555555556 0.0
1.1111111111111112E-4 0.005666666666666667 0.0
1.1111111111111112E-4 0.0057777777777777775 0.0
1.1111111111111112E-4 0.005888888888888889 0.0
1.1111111111111112E-4 0.006 0.0
1.1111111111111112E-4 0.01711111111111111 0.0
1.1111111111111112E-4 0.028222222222222225 0.0
1.1111111111111112E-4 0.03933333333333333 0.0
1.1111111111111112E-4 0.050444444444444445 0.0
1.1111111111111112E-4 0.06155555555555556 0.0
1.1111111111111112E-4 0.07266666666666667 0.0
1.1111111111111112E-4 0.08377777777777778 0.0
1.1111111111111112E-4 0.0948888888888889 0.0
1.1111111111111112E-4 0.10600000000000001 0.0
1.1111111111111112E-4 0.10611111111111113 0.0
1.1111111111111112E-4 0.10622222222222223 0.0
1.1111111111111112E-4 0.10633333333333335 0.0
1.1111111111111112E-4 0.10644444444444445 0.0
1.1111111111111112E-4 0.10655555555555557 0.0
1.1111111111111112E-4 0.10666666666666667 0.0
1.1111111111111112E-4 0.10677777777777779 0.0
1.1111111111111112E-4 0.1068888888888889 0.0
1.1111111111111112E-4 0.10700000000000001 0.0
2.2222222222222223E-4 0.0 0.0
2.2222222222222223E-4 3.846153846153846E-4 0.0
2.2222222222222223E-4 7.692307692307692E-4 0.0
2.2222222222222223E-4 0.0011538461538461537 0.0
2.2222222222222223E-4 0.0015384615384615385 0.0
2.2222222222222223E-4 0.0019230769230769232 0.0
2.2222222222222223E-4 0.0023076923076923075 0.0
2.2222222222222223E-4 0.002692307692307692 0.0
2.2222222222222223E-4 0.003076923076923077 0.0
2.2222222222222223E-4 0.0034615384615384616 0.0
2.2222222222222223E-4 0.0038461538461538464 0.0
2.2222222222222223E-4 0.004230769230769231 0.0
2.2222222222222223E-4 0.004615384615384615 0.0
2.2222222222222223E-4 0.005 0.0
2.2222222222222223E-4 0.005111111111111111 0.0
2.2222222222222223E-4 0.005222222222222223 0.0
2.2222222222222223E-4 0.005333333333333333 0.0
2.2222222222222223E-4 0.0054444444444444445 0.0
2.2222222222222223E-4 0.005555555555555556 0.0
2.2222222222222223E-4 0.005666666666666667 0.0
2.2222222222222223E-4 0.0057777777777777775 0.0
2.2222222222222223E-4 0.005888888888888889 0.0
2.2222222222222223E-4 0.006 0.0
2.2222222222222223E-4 0.01711111111111111 0.0
2.2222222222222223E-4 0.028222222222222225 0.0
2.2222222222222223E-4 0.03933333333333333 0.0
2.2222222222222223E-4 0.050444444444444445 0.0
2.2222222222222223E-4 0.06155555555555556 0.0
2.2222222222222223E-4 0.07266666666666667 0.0
2.2222222222222223E-4 0.08377777777777778 0.0
2.2222222222222223E-4 0.0948888888888889 0.0
2.2222222222222223E-4 0.10600000000000001 0.0
2.2222222222222223E-4 0.10611111111111113 0.0
2.2222222222222223E-4 0.10622222222222223 0.0
2.2222222222222223E-4 0.10633333333333335 0.0
2.2222222222222223E-4 0.10644444444444445 0.0
2.2222222222222223E-4 0.10655555555555557 0.0
2.2222222222222223E-4 0.10666666666666667 0.0
2.2222222222222223E-4 0.10677777777777779 0.0
2.2222222222222223E-4 0.1068888888888889 0.0
2.2222222222222223E-4 0.10700000000000001 0.0
3.333333333333334E-4 0.0 0.0
3.333333333333334E-4 3.846153846153846E-4 0.0
3.333333333333334E-4 7.692307692307692E-4 0.0
3.333333333333334E-4 0.0011538461538461537 0.0
3.333333333333334E-4 0.0015384615384615385 0.0
3.333333333333334E-4 0.0019230769230769232 0.0
3.333333333333334E-4 0.0023076923076923075 0.0
3.333333333333334E-4 0.002692307692307692 0.0
3.333333333333334E-4 0.003076923076923077 0.0
3.333333333333334E-4 0.0034615384615384616 0.0
3.333333333333334E-4 0.0038461538461538464 0.0
3.333333333333334E-4 0.004230769230769231 0.0
3.333333333333334E-4 0.004615384615384615 0.0
3.333333333333334E-4 0.005 0.0
3.333333333333334E-4 0.005111111111111111 0.0
3.333333333333334E-4 0.005222222222222223 0.0
3.333333333333334E-4 0.005333333333333333 0.0
3.333333333333334E-4 0.0054444444444444445 0.0
3.333333333333334E-4 0.005555555555555556 0.0
3.333333333333334E-4 0.005666666666666667 0.0
3.333333333333334E-4 0.0057777777777777775 0.0
3.333333333333334E-4 0.005888888888888889 0.0
3.333333333333334E-4 0.006 0.0
3.333333333333334E-4 0.01711111111111111 0.0
3.333333333333334E-4 0.028222222222222225 0.0
3.333333333333334E-4 0.03933333333333333 0.0
3.333333333333334E-4 0.050444444444444445 0.0
3.333333333333334E-4 0.06155555555555556 0.0
3.333333333333334E-4 0.07266666666666667 0.0
3.333333333333334E-4 0.08377777777777778 0.0
3.333333333333334E-4 0.0948888888888889 0.0
3.333333333333334E-4 0.10600000000000001 0.0
3.333333333333334E-4 0.10611111111111113 0.0
3.333333333333334E-4 0.10622222222222223 0.0
3.333333333333334E-4 0.10633333333333335 0.0
3.333333333333334E-4 0.10644444444444445 0.0
3.333333333333334E-4 0.10655555555555557 0.0
3.333333333333334E-4 0.10666666666666667 0.0
3.333333333333334E-4 0.10677777777777779 0.0
3.333333333333334E-4 0.1068888888888889 0.0
3.333333333333334E-4 0.10700000000000001 0.0
4.4444444444444447E-4 0.0 0.0
4.4444444444444447E-4 3.846153846153846E-4 0.0
4.4444444444444447E-4 7.692307692307692E-4 0.0
4.4444444444444447E-4 0.0011538461538461537 0.0
4.4444444444444447E-4 0.0015384615384615385 0.0
4.4444444444444447E-4 0.0019230769230769232 0.0
4.4444444444444447E-4 0.0023076923076923075 0.0
4.4444444444444447E-4 0.002692307692307692 0.0
4.4444444444444447E-4 0.003076923076923077 0.0
4.4444444444444447E-4 0.0034615384615384616 0.0
4.4444444444444447E-4 0.0038461538461538464 0.0
4.4444444444444447E-4 0.004230769230769231 0.0
4.4444444444444447E-4 0.004615384615384615 0.0
4.4444444444444447E-4 0.005 0.0
4.4444444444444447E-4 0.005111111111111111 0.0
4.4444444444444447E-4 0.005222222222222223 0.0
4.4444444444444447E-4 0.005333333333333333 0.0
4.4444444444444447E-4 0.0054444444444444445 0.0
4.4444444444444447E-4 0.005555555555555556 0.0
4.4444444444444447E-4 0.005666666666666667 0.0
4.4444444444444447E-4 0.0057777777777777775 0.0
4.4444444444444447E-4 0.005888888888888889 0.0
4.4444444444444447E-4 0.006 0.0
4.4444444444444447E-4 0.01711111111111111 0.0
4.4444444444444447E-4 0.028222222222222225 0.0
4.4444444444444447E-4 0.03933333333333333 0.0
4.4444444444444447E-4 0.050444444444444445 0.0
4.4444444444444447E-4 0.06155555555555556 0.0
4.4444444444444447E-4 0.07266666666666667 0.0
4.4444444444444447E-4 0.08377777777777778 0.0
4.4444444444444447E-4 0.0948888888888889 0.0
4.4444444444444447E-4 0.10600000000000001 0.0
4.4444444444444447E-4 0.10611111111111113 0.0
4.4444444444444447E-4 0.10622222222222223 0.0
4.4444444444444447E-4 0.10633333333333335 0.0
4.4444444444444447E-4 0.10644444444444445 0.0
4.4444444444444447E-4 0.10655555555555557 0.0
4.4444444444444447E-4 0.10666666666666667 0.0
4.4444444444444447E-4 0.10677777777777779 0.0
4.4444444444444447E-4 0.1068888888888889 0.0
4.4444444444444447E-4 0.10700000000000001 0.0
5.555555555555556E-4 0.0 0.0
5.555555555555556E-4 3.846153846153846E-4 0.0
5.555555555555556E-4 7.692307692307692E-4 0.0
5.555555555555556E-4 0.0011538461538461537 0.0
5.555555555555556E-4 0.0015384615384615385 0.0
5.555555555555556E-4 0.0019230769230769232 0.0
5.555555555555556E-4 0.0023076923076923075 0.0
5.555555555555556E-4 0.002692307692307692 0.0
5.555555555555556E-4 0.003076923076923077 0.0
5.555555555555556E-4 0.0034615384615384616 0.0
5.555555555555556E-4 0.0038461538461538464 0.0
5.555555555555556E-4 0.004230769230769231 0.0
5.555555555555556E-4 0.004615384615384615 0.0
5.555555555555556E-4 0.005 0.0
5.555555555555556E-4 0.005111111111111111 0.0
5.555555555555556E-4 0.005222222222222223 0.0
5.555555555555556E-4 0.005333333333333333 0.0
5.555555555555556E-4 0.0054444444444444445 0.0
5.555555555555556E-4 0.005555555555555556 0.0
5.555555555555556E-4 0.005666666666666667 0.0
5.555555555555556E-4 0.0057777777777777775 0.0
5.555555555555556E-4 0.005888888888888889 0.0
5.555555555555556E-4 0.006 0.0
5.555555555555556E-4 0.01711111111111111 0.0
5.555555555555556E-4 0.028222222222222225 0.0
5.555555555555556E-4 0.03933333333333333 0.0
5.555555555555556E-4 0.050444444444444445 0.0
5.555555555555556E-4 0.06155555555555556 0.0
[...]
POINT_DATA 1353
SCALARS Temperatura float 1
LOOKUP_TABLE default
137.27523691864596
137.14974815051303
137.02244447528335
136.8932828975053
136.76220823131933
136.6291434985808
136.49398165700245
136.35657039175734
136.21668526279484
136.0739680226561
135.92784490982072
135.77715627561597
135.62028781861372
135.4483364122323
135.26262071222317
135.08898066013842
134.91856395434635
134.7497641560143
134.58152187898463
134.4130787887918
134.24379921121363
134.07311003096703
133.90047407098797
114.53387004688837
114.3380413722179
114.37148410189398
114.36319261667282
114.36551645833072
114.36377528156065
114.36910854730567
114.34061872508572
112.13214994934694
112.11253874857162
112.09316168252867
112.07397104408645
112.05492197853752
112.03597439420233
112.01709434866927
111.99825492896262
111.97943672876336
111.96062805940024
137.2823069821632
137.15681298788076
137.0295032678661
136.90033628806088
136.76925696751434
136.63618869565087
136.50102491052098
136.3636147086426
136.22373433002733
136.0810358862666
135.9349270456251
135.78438887644182
135.62729711266346
135.4579904431256
135.28357328102248
135.1110794257375
134.94138899648738
134.77302166435152
134.6051060553831
134.43693803867617
134.26790682750047
134.0974499710489
133.92503431681314
114.55137075108127
114.35784941422808
114.3906925862068
114.38255854490201
114.38483709135339
114.3831238772177
114.38838740466913
114.36015897633138
112.15088368160568
112.13129301855263
112.11193624011628
112.09276442318001
112.07373173154465
112.05479737772323
112.03592699273814
112.01709344495927
111.99827724096119
111.9794666694378
137.28955692031738
137.1640609013555
137.03674839328707
136.90758051725908
136.7765028330029
136.6434396975642
136.5082862628959
136.3708947232765
136.2310479775883
136.0884093541625
135.942414543423
135.7921038237306
135.63539841917526
135.46911909600794
135.29975624534683
135.13091195142482
134.96304828955184
134.79595054743234
134.62903811041704
134.4617439320082
134.29351818087162
134.12382514613006
133.95214066891526
114.56520442387627
114.37869113897453
114.40971972819068
114.40206218096735
114.4042036168785
114.40257516320243
114.4076270303928
114.38019507280684
112.16940194930423
112.14988230759288
112.1305955731767
112.11148906469022
112.09251397015849
112.0736274573364
112.05479396442041
112.03598579973672
112.01718328776337
111.9983746991464
137.29698773376117
137.17149175229486
137.04417970474702
136.91501537930318
136.78394554277045
136.65089611136563
136.5157649901633
136.37840955901487
136.23862312249807
136.0960881176917
135.9502865348805
135.8003228465577
135.6444623005963
135.48093799818884
135.31518557836026
135.14946091483736
134.98401159810612
134.81876993137078
134.6534284454824
134.48755498123535
134.32066953206103
134.1522657384549
133.98182465935957
114.57535896337292
114.40057133374813
114.42856386230298
114.42170411001908
114.42361581410796
114.42212939009869
114.42682690670246
114.40072831569871
112.18770154153277
112.16830775802204
112.14914472350344
112.13015303263077
112.1112787642013
112.0924758092544
112.07370690632938
112.05494374334134
112.03616659173686
112.01736384531856
137.30459987371637
137.17910543814446
137.05179692898685
136.9226405260167
136.7915846265258
136.65855725311462
136.52346001396134
136.38615734995395
136.24645627030904
136.10406640004547
135.95852554807257
135.80904246234203
135.65428848066168
135.49327636983887
135.33055502744037
135.1676757746938
135.00475160150964
134.8417325203451
134.67840708504212
134.51443920545023
134.34940411217826
134.18281371935922
134.0141386546547
114.58181464442058
114.42349785599212
114.44722223031611
114.44148529129284
114.44307330686748
114.44178696561966
114.44598616246772
114.42176085430904
112.20577696100247
112.18657187527894
112.16759319852952
112.14877100196713
112.1300439470836
112.11136177131107
112.09268559261213
112.07398697058039
112.05524664992382
112.03645351269542
137.31239345168794
137.186901777456
137.0595996863175
136.93045546669438
136.7994194310119
136.66642218216208
136.5313698615007
136.39413552995768
136.25454292128978
136.11233507022544
135.96711497272307
135.81822895984257
135.66472354591465
135.50606104833963
135.34611019551858
135.18594111436204
135.02559894272252
134.86503079266683
134.7040705459272
134.54243904233965
134.3797486895169
134.21551078602081
134.04915638742548
114.58454395826948
114.44748168312894
114.46569096530406
114.46140706372698
114.46257556018888
114.46154846139034
114.46510355073103
114.44329576656408
112.22362013093002
112.20467972070192
112.1859570738613
112.1673664667013
112.1488368324867
112.13031388030413
112.111758379304
112.09314318033331
112.07445057950068
112.05567059265508
137.3203683386336
137.19488046987087
137.06758748924727
136.93845957266262
136.80744912906442
136.67448972224042
136.53949269500526
136.4023409667821
136.26287745480863
136.12088316472315
135.97603510863064
135.82783530430754
135.6756525088447
135.51923701895112
135.3619309246501
135.20441308351423
135.0467021664564
134.8887532944361
134.73043899655647
134.57153224866346
134.4116802808455
134.2503789550135
134.0869743319712
114.58351121889596
114.47253702764256
114.48396505705264
114.48147115718997
114.48212187424373
114.4814146241915
114.48417741155929
114.46533719265236
112.24121990700442
112.22264152438078
112.2042632400317
112.18597566792484
112.16769683576227
112.14937111229888
112.13096255433304
112.11244791449465
112.09381270254107
112.07504897185835
137.3285242160066
137.20304108499622
137.07575973810387
136.9466520826523
136.8156727314635
136.6827584837679
136.54782636533713
136.4107700425894
136.27145334265455
136.12969837156817
135.98526280837473
135.83781051281107
135.68698476926608
135.532748582342
135.378019771745
135.22312540267208
135.068084977089
134.91287855852144
134.75743021767084
134.60158612279557
134.44507295336587
134.28738231857918
134.12771477237004
114.57867170816021
114.4986815786034
114.50203828241374
114.50167971391993
114.50171137374355
114.50138639458902
114.50320561045307
114.48789055780058
112.25856126065743
112.2404790399097
112.2225580063776
112.20465456490919
112.18667842795288
112.16858379825551
112.1503442145219
112.13194393912784
112.11337370931201
112.0946286346614
137.33686060497323
137.21138306238126
137.08411571844204
136.95503210844313
136.82408910022684
136.69122689085768
136.5563684691555
136.41941875246084
136.28026340964894
136.1387673377957
135.99477246365697
135.84810371415566
135.6986442098391
135.54653589497096
135.394336122476
135.24203998696132
135.08968504054408
134.93729114534958
134.78485150183383
134.63231875542368
134.47957292114236
134.32634092901623
134.17153232136738
114.5699698877204
114.52593699642225
114.5199030664577
114.52203532971414
114.5213429888827
114.52146493905943
114.52218543185077
114.51096295968235
112.27562385296804
112.25823852637906
112.24093222445762
112.22348544724001
112.20585281486773
112.18801328851565
112.16995720431663
112.15167993122942
112.13317926799894
112.11445425707183
137.34537688534962
137.21990571569708
137.09265460077222
136.9635986407861
136.83269696304507
136.6998932112799
136.5651164085175
136.4282828213525
136.28930008526933
136.14807605226963
136.00453720815827
135.85866552221782
135.7105631267511
135.56053587864866
135.41081523987933
135.2610770873318
135.1113851306199
134.96180692447172
134.81241571287586
134.6632934907984
134.51453604883966
134.36626168927094
118.39897616021821
118.39897616021821
118.39897616021821
118.39897616021821
118.39897616021821
118.39897616021821
118.39897616021821
118.39897616021821
118.39897616021821
118.39897616021821
112.2761404781572
112.25953001547627
112.2425779411498
112.22530576894168
112.20772942986186
112.18986075830675
112.1717083439459
112.15327804117607
112.13457327527625
138.5659522956983
138.4424463393504
138.32060353145783
138.20044510810584
138.08200633334963
137.96533666791302
137.85049995746832
137.73757447201373
137.62665245553524
137.51783851525434
137.4112455228813
137.30698558828402
137.20515345643634
137.10580450455097
137.00856013164727
136.91155897993758
136.81479735936745
136.71827062617507
136.62197267597142
136.52589510885375
136.43002586050986
136.33434684529405
118.39897616021821
118.39897616021821
118.39897616021821
118.39897616021821
118.39897616021821
118.39897616021821
118.39897616021821
118.39897616021821
118.39897616021821
118.39897616021821
114.58570098931631
114.56223487304871
114.53933971339544
114.51700777948643
114.49523313501626
114.47401123415804
114.4533386888685
114.4332131291176
114.41363311860111
139.36126868181057
139.23746153282204
139.1143775960825
138.99200880644588
138.8703414954315
138.7493561942911
138.62902736900935
138.50932313030822
138.39020500807857
138.27162796953493
138.15354104047898
138.03588919615257
137.91861726174744
137.8016752936335
137.68579043316694
137.56996524730718
137.4541970442107
137.33848334359973
137.22282201200227
137.10721148629747
136.99165114103639
136.87614192162414
118.39897616021821
118.39897616021821
118.39897616021821
118.39897616021821
118.39897616021821
118.39897616021821
118.39897616021821
118.39897616021821
118.39897616021821
118.39897616021821
114.61535715748862
114.59642257994022
114.57743049197958
114.5583838547786
114.53928500443483
114.5201357624639
114.5009374998635
114.48169117584938
114.46239736133977
139.7832991298839
139.6595263919592
139.53637522602213
139.41384799886012
139.2919486373771
139.17068273236512
139.05005768237194
138.9300828675444
138.81076983113076
138.69213242212987
138.57418680351935
138.45695114604965
138.340444803452
138.22468709863443
138.11022660826455
137.99587017882308
137.88161925348132
137.76747523370082
137.65343944416907
137.53951307397503
137.42569707909098
137.31199201333223
118.39897616021821
118.39897616021821
118.39897616021821
118.39897616021821
118.39897616021821
118.39897616021821
118.39897616021821
118.39897616021821
118.39897616021821
118.39897616021821
114.61516280980231
114.59508080051718
114.57510319066046
114.55522893778883
114.53545720406771
114.51578732584655
114.49621879585149
114.47675125232104
114.45738447237221
140.02082918364292
139.89705422782615
139.77379753099203
139.6510584711654
139.52883591290117
139.40712816488838
139.28593292032554
139.1652471821245
139.04506717811913
138.9253882778735
138.80620493593992
138.6875107095197
138.5692984060252
138.45156032819045
138.33497644226583
138.218469415371
138.1020385772188
137.98568326276558
137.86940282104428
137.75319663038667
137.63706412405563
137.5210048351181
118.39897616021821
118.39897616021821
118.39897616021821
118.39897616021821
118.39897616021821
118.39897616021821
118.39897616021821
118.39897616021821
118.39897616021821
118.39897616021821
114.61516476157475
114.59538252234735
114.57566165200417
114.55600247247742
114.53640524096177
114.51687015834672
114.49739737420872
114.47798698988966
114.45863906039229
140.14798556355024
140.02420900476832
139.90089536785945
139.77804485868018
139.65565776674663
139.5337344806214
139.4122755097893
139.29128151272732
139.17075333010357
139.05069202036353
138.93109889139927
138.81197551568957
138.69332371401683
138.57514551612175
138.4581284074324
138.34118985123303
138.22433004731965
138.1075491954125
137.99084749300232
137.87422513147294
137.75768228941317
137.64121912073188
118.39897616021821
118.39897616021821
118.39897616021821
118.39897616021821
118.39897616021821
118.39897616021821
118.39897616021821
118.39897616021821
118.39897616021821
118.39897616021821
114.61519218932294
114.59533138098736
114.5755434140449
114.55582816784622
114.53618554177142
114.51661545286808
114.49711783443462
114.47769263513595
114.45833981845406
140.2102202401126
140.08644404105814
139.963105773056
139.84020545074955
139.71774303484233
139.59571842660367
139.47413145997973
139.352981891287
139.23226938665323
139.1119935078243
138.99215369795567
138.8727492708222
138.7537794075918
138.63524315876973
138.5178479285086
138.4005273664652
138.2832813816122
138.16610988207373
138.049012775651
137.93198997084113
137.8150413786605
137.6981669159572
118.39897616021821
118.39897616021821
118.39897616021821
118.39897616021821
118.39897616021821
118.39897616021821
118.39897616021821
118.39897616021821
118.39897616021821
118.39897616021821
114.61517841039031
114.59533857964895
114.57556847297788
114.55586811164484
114.5362375103152
114.51667667776056
114.49718561729047
114.47776432702553
114.45841280006896
140.22880630225666
140.10502978383968
139.98168291782702
139.85876577972658
139.7362784384194
139.61422095932943
139.49259340901062
139.3713958612092
139.25062840438235
139.13029115044168
139.0103842439985
138.8909078704821
138.77186226112693
138.6532476960595
138.53577388795446
138.41837478018266
138.30105041008196
138.18380081540045
138.06662603407517
137.94952610376498
137.8325010609801
137.7155509394661
118.39897616021821
118.39897616021821
118.39897616021821
118.39897616021821
118.39897616021821
118.39897616021821
118.39897616021821
118.39897616021821
118.39897616021821
118.39897616021821
114.6151846840714
114.59533800365053
114.57556208471212
114.55585689361523
114.53622240026992
114.51665857776838
114.49716540215738
114.47774285229313
114.45839090974935
140.2102202401122
140.08644404105772
139.96310577305547
139.84020545074895
139.7177430348415
139.5957184266025
139.47413145997837
139.35298189128545
139.2322693866515
139.11199350782223
138.9921536979532
138.8727492708193
138.75377940758844
138.63524315876592
138.51784792850432
138.4005273664605
138.2832813816071
138.1661098820683
138.04901277564525
137.9319899708352
137.81504137865448
137.69816691595102
118.39897616021821
118.39897616021821
118.39897616021821
118.39897616021821
118.39897616021821
118.39897616021821
118.39897616021821
118.39897616021821
118.39897616021821
118.39897616021821
114.61517841037926
114.59533857963788
114.5755684729668
114.55586811163376
114.53623751030406
114.51667667774933
114.49718561727919
114.47776432701423
114.45841280005767
140.1479855635566
140.0242090047747
139.90089536786587
139.7780448586867
139.6556577667533
139.53373448062823
139.41227550979616
139.29128151273412
139.17075333011024
139.05069202037026
138.93109889140618
138.81197551569664
138.69332371402407
138.57514551612928
138.4581284074402
138.341189851241
138.22433004732787
138.10754919542097
137.9908474930109
137.8742251314816
137.7576822894218
137.6412191207405
118.39897616021821
118.39897616021821
118.39897616021821
118.39897616021821
118.39897616021821
118.39897616021821
118.39897616021821
118.39897616021821
118.39897616021821
118.39897616021821
114.61519218928822
114.59533138095247
114.57554341400983
114.55582816781094
114.53618554173596
114.5166154528325
114.49711783439894
114.47769263510021
114.45833981841832
140.02082918365306
139.8970542278363
139.7737975310023
139.65105847117573
139.52883591291143
139.40712816489847
139.28593292033563
139.16524718213452
139.04506717812907
138.92538827788317
138.80620493594915
138.68751070952842
138.56929840603343
138.45156032819816
138.33497644227305
138.21846941537785
138.10203857722541
137.985683262772
137.86940282105058
137.7531966303928
137.63706412406177
137.5210048351242
118.39897616021821
118.39897616021821
118.39897616021821
118.39897616021821
118.39897616021821
118.39897616021821
118.39897616021821
118.39897616021821
118.39897616021821
118.39897616021821
114.6151647615722
114.59538252234483
114.57566165200168
114.55600247247499
114.5364052409594
114.51687015834445
114.49739737420647
114.47798698988737
114.45863906038998
139.78329912990742
139.65952639198267
139.53637522604558
139.41384799888348
139.29194863740037
139.17068273238837
139.0500576823951
138.9300828675675
138.8107698311539
138.69213242215312
138.57418680354272
138.4569511460731
138.3404448034755
138.2246870986579
138.11022660828803
137.99587017884656
137.88161925350468
137.7674752337239
137.653439444192
137.53951307399777
137.42569707911343
137.31199201335446
118.39897616021821
118.39897616021821
118.39897616021821
118.39897616021821
118.39897616021821
118.39897616021821
118.39897616021821
118.39897616021821
118.39897616021821
118.39897616021821
114.61516280979686
114.59508080051168
114.57510319065493
114.5552289377833
114.53545720406217
114.51578732584096
114.49621879584589
114.47675125231548
114.45738447236668
139.36126868184013
139.23746153285163
139.1143775961122
138.9920088064757
138.8703414954615
138.74935619432128
138.6290273690397
138.50932313033871
138.39020500810915
138.2716279695656
138.15354104050977
138.03588919618352
137.91861726177862
137.80167529366497
137.68579043319872
137.56996524733927
137.45419704424313
137.33848334363253
137.2228220120353
137.1072114863307
136.99165114106975
136.8761419216575
118.39897616021821
118.39897616021821
118.39897616021821
118.39897616021821
118.39897616021821
118.39897616021821
118.39897616021821
118.39897616021821
118.39897616021821
118.39897616021821
114.61535715746601
114.59642257991746
114.57743049195669
114.55838385475559
114.53928500441178
114.52013576244083
114.50093749984045
114.48169117582641
114.46239736131682
138.56595229570596
138.44244633935804
138.32060353146548
138.2004451081135
138.08200633335727
137.96533666792058
137.8504999574758
137.73757447202112
137.6266524555426
137.5178385152617
137.41124552288872
137.30698558829147
137.20515345644378
137.1058045045584
137.0085601316546
136.91155897994486
136.8147973593746
136.718270626182
136.62197267597833
136.52589510886054
136.43002586051645
136.3343468453005
118.39897616021821
118.39897616021821
118.39897616021821
118.39897616021821
118.39897616021821
118.39897616021821
118.39897616021821
118.39897616021821
118.39897616021821
118.39897616021821
114.58570098931838
114.56223487305078
114.53933971339751
114.51700777948851
114.49523313501828
114.47401123415997
114.45333868887032
114.43321312911932
114.4136331186028
137.34537688535067
137.21990571569813
137.0926546007732
136.963598640787
136.83269696304595
136.69989321128082
136.56511640851855
136.42828282135363
136.28930008527058
136.148076052271
136.00453720815975
135.8586655222194
135.71056312675282
135.56053587865043
135.41081523988117
135.26107708733375
135.11138513062195
134.96180692447405
134.8124157128782
134.66329349080078
134.51453604884213
134.36626168927344
118.39897616021821
118.39897616021821
118.39897616021821
118.39897616021821
118.39897616021821
118.39897616021821
118.39897616021821
118.39897616021821
118.39897616021821
118.39897616021821
112.27614047814005
112.25953001545923
112.2425779411329
112.22530576892483
112.20772942984509
112.18986075829007
112.17170834392934
112.15327804115957
112.13457327525973
137.33686060497445
137.21138306238234
137.08411571844297
136.95503210844402
136.8240891002277
136.6912268908586
136.5563684691566
136.419418752462
136.2802634096503
136.13876733779713
135.99477246365848
135.8481037141575
135.6986442098411
135.54653589497292
135.394336122478
135.2420399869634
135.08968504054624
134.93729114535185
134.78485150183616
134.63231875542607
134.4795729211448
134.32634092901876
134.17153232136997
114.56996988773432
114.5259369964709
114.51990306647578
114.52203532973144
114.52134298895018
114.52146493907519
114.52218543184865
114.510962959685
112.27562385295084
112.25823852636182
112.24093222444044
112.22348544722294
112.20585281485081
112.1880132884988
112.16995720429978
112.15167993121264
112.13317926798219
112.11445425705514
137.3285242160079
137.2030410849973
137.07575973810486
136.94665208265312
136.81567273146436
136.68275848376874
136.54782636533827
136.41077004259068
136.27145334265597
136.12969837156967
135.98526280837626
135.83781051281298
135.68698476926832
135.5327485823441
135.3780197717471
135.22312540267424
135.06808497709125
134.91287855852374
134.75743021767317
134.6015861227979
134.44507295336822
134.2873823185816
134.12771477237254
114.5786717081745
114.49868157865207
114.50203828243177
114.50167971393738
114.50171137381139
114.5013863946048
114.50320561045099
114.48789055780307
112.25856126064004
112.24047903989238
112.22255800636039
112.20465456489202
112.18667842793582
112.16858379823849