# vtk DataFile Version 2.0
Niestacjonarne zagadnienie cieplne - ogrzewanie wody w garnku stalowym
ASCII
DATASET UNSTRUCTURED_GRID
POINTS 1353 float
0.0 0.0 0.0
0.0 0.0015384615384615385 0.0
0.0 0.003076923076923077 0.0
0.0 0.004615384615384615 0.0
0.0 0.006153846153846154 0.0
0.0 0.007692307692307693 0.0
0.0 0.00923076923076923 0.0
0.0 0.010769230769230769 0.0
0.0 0.012307692307692308 0.0
0.0 0.013846153846153847 0.0
0.0 0.015384615384615385 0.0
0.0 0.016923076923076923 0.0
0.0 0.01846153846153846 0.0
0.0 0.02 0.0
0.0 0.020555555555555556 0.0
0.0 0.021111111111111112 0.0
0.0 0.021666666666666667 0.0
0.0 0.022222222222222223 0.0
0.0 0.02277777777777778 0.0
0.0 0.023333333333333334 0.0
0.0 0.02388888888888889 0.0
0.0 0.024444444444444446 0.0
0.0 0.025 0.0
0.0 0.036111111111111115 0.0
0.0 0.04722222222222222 0.0
0.0 0.058333333333333334 0.0
0.0 0.06944444444444445 0.0
0.0 0.08055555555555556 0.0
0.0 0.09166666666666667 0.0
0.0 0.10277777777777777 0.0
0.0 0.1138888888888889 0.0
0.0 0.125 0.0
0.0 0.12555555555555556 0.0
0.0 0.12611111111111112 0.0
0.0 0.12666666666666668 0.0
0.0 0.1272222222222222 0.0
0.0 0.12777777777777777 0.0
0.0 0.12833333333333333 0.0
0.0 0.1288888888888889 0.0
0.0 0.12944444444444445 0.0
0.0 0.13 0.0
5.555555555555556E-4 0.0 0.0
5.555555555555556E-4 0.0015384615384615385 0.0
5.555555555555556E-4 0.003076923076923077 0.0
5.555555555555556E-4 0.004615384615384615 0.0
5.555555555555556E-4 0.006153846153846154 0.0
5.555555555555556E-4 0.007692307692307693 0.0
5.555555555555556E-4 0.00923076923076923 0.0
5.555555555555556E-4 0.010769230769230769 0.0
5.555555555555556E-4 0.012307692307692308 0.0
5.555555555555556E-4 0.013846153846153847 0.0
5.555555555555556E-4 0.015384615384615385 0.0
5.555555555555556E-4 0.016923076923076923 0.0
5.555555555555556E-4 0.01846153846153846 0.0
5.555555555555556E-4 0.02 0.0
5.555555555555556E-4 0.020555555555555556 0.0
5.555555555555556E-4 0.021111111111111112 0.0
5.555555555555556E-4 0.021666666666666667 0.0
5.555555555555556E-4 0.022222222222222223 0.0
5.555555555555556E-4 0.02277777777777778 0.0
5.555555555555556E-4 0.023333333333333334 0.0
5.555555555555556E-4 0.02388888888888889 0.0
5.555555555555556E-4 0.024444444444444446 0.0
5.555555555555556E-4 0.025 0.0
5.555555555555556E-4 0.036111111111111115 0.0
5.555555555555556E-4 0.04722222222222222 0.0
5.555555555555556E-4 0.058333333333333334 0.0
5.555555555555556E-4 0.06944444444444445 0.0
5.555555555555556E-4 0.08055555555555556 0.0
5.555555555555556E-4 0.09166666666666667 0.0
5.555555555555556E-4 0.10277777777777777 0.0
5.555555555555556E-4 0.1138888888888889 0.0
5.555555555555556E-4 0.125 0.0
5.555555555555556E-4 0.12555555555555556 0.0
5.555555555555556E-4 0.12611111111111112 0.0
5.555555555555556E-4 0.12666666666666668 0.0
5.555555555555556E-4 0.1272222222222222 0.0
5.555555555555556E-4 0.12777777777777777 0.0
5.555555555555556E-4 0.12833333333333333 0.0
5.555555555555556E-4 0.1288888888888889 0.0
5.555555555555556E-4 0.12944444444444445 0.0
5.555555555555556E-4 0.13 0.0
0.0011111111111111111 0.0 0.0
0.0011111111111111111 0.0015384615384615385 0.0
0.0011111111111111111 0.003076923076923077 0.0
0.0011111111111111111 0.004615384615384615 0.0
0.0011111111111111111 0.006153846153846154 0.0
0.0011111111111111111 0.007692307692307693 0.0
0.0011111111111111111 0.00923076923076923 0.0
0.0011111111111111111 0.010769230769230769 0.0
0.0011111111111111111 0.012307692307692308 0.0
0.0011111111111111111 0.013846153846153847 0.0
0.0011111111111111111 0.015384615384615385 0.0
0.0011111111111111111 0.016923076923076923 0.0
0.0011111111111111111 0.01846153846153846 0.0
0.0011111111111111111 0.02 0.0
0.0011111111111111111 0.020555555555555556 0.0
0.0011111111111111111 0.021111111111111112 0.0
0.0011111111111111111 0.021666666666666667 0.0
0.0011111111111111111 0.022222222222222223 0.0
0.0011111111111111111 0.02277777777777778 0.0
0.0011111111111111111 0.023333333333333334 0.0
0.0011111111111111111 0.02388888888888889 0.0
0.0011111111111111111 0.024444444444444446 0.0
0.0011111111111111111 0.025 0.0
0.0011111111111111111 0.036111111111111115 0.0
0.0011111111111111111 0.04722222222222222 0.0
0.0011111111111111111 0.058333333333333334 0.0
0.0011111111111111111 0.06944444444444445 0.0
0.0011111111111111111 0.08055555555555556 0.0
0.0011111111111111111 0.09166666666666667 0.0
0.0011111111111111111 0.10277777777777777 0.0
0.0011111111111111111 0.1138888888888889 0.0
0.0011111111111111111 0.125 0.0
0.0011111111111111111 0.12555555555555556 0.0
0.0011111111111111111 0.12611111111111112 0.0
0.0011111111111111111 0.12666666666666668 0.0
0.0011111111111111111 0.1272222222222222 0.0
0.0011111111111111111 0.12777777777777777 0.0
0.0011111111111111111 0.12833333333333333 0.0
0.0011111111111111111 0.1288888888888889 0.0
0.0011111111111111111 0.12944444444444445 0.0
0.0011111111111111111 0.13 0.0
0.0016666666666666666 0.0 0.0
0.0016666666666666666 0.0015384615384615385 0.0
0.0016666666666666666 0.003076923076923077 0.0
0.0016666666666666666 0.004615384615384615 0.0
0.0016666666666666666 0.006153846153846154 0.0
0.0016666666666666666 0.007692307692307693 0.0
0.0016666666666666666 0.00923076923076923 0.0
0.0016666666666666666 0.010769230769230769 0.0
0.0016666666666666666 0.012307692307692308 0.0
0.0016666666666666666 0.013846153846153847 0.0
0.0016666666666666666 0.015384615384615385 0.0
0.0016666666666666666 0.016923076923076923 0.0
0.0016666666666666666 0.01846153846153846 0.0
0.0016666666666666666 0.02 0.0
0.0016666666666666666 0.020555555555555556 0.0
0.0016666666666666666 0.021111111111111112 0.0
0.0016666666666666666 0.021666666666666667 0.0
0.0016666666666666666 0.022222222222222223 0.0
0.0016666666666666666 0.02277777777777778 0.0
0.0016666666666666666 0.023333333333333334 0.0
0.0016666666666666666 0.02388888888888889 0.0
0.0016666666666666666 0.024444444444444446 0.0
0.0016666666666666666 0.025 0.0
0.0016666666666666666 0.036111111111111115 0.0
0.0016666666666666666 0.04722222222222222 0.0
0.0016666666666666666 0.058333333333333334 0.0
0.0016666666666666666 0.06944444444444445 0.0
0.0016666666666666666 0.08055555555555556 0.0
0.0016666666666666666 0.09166666666666667 0.0
0.0016666666666666666 0.10277777777777777 0.0
0.0016666666666666666 0.1138888888888889 0.0
0.0016666666666666666 0.125 0.0
0.0016666666666666666 0.12555555555555556 0.0
0.0016666666666666666 0.12611111111111112 0.0
0.0016666666666666666 0.12666666666666668 0.0
0.0016666666666666666 0.1272222222222222 0.0
0.0016666666666666666 0.12777777777777777 0.0
0.0016666666666666666 0.12833333333333333 0.0
0.0016666666666666666 0.1288888888888889 0.0
0.0016666666666666666 0.12944444444444445 0.0
0.0016666666666666666 0.13 0.0
0.0022222222222222222 0.0 0.0
0.0022222222222222222 0.0015384615384615385 0.0
0.0022222222222222222 0.003076923076923077 0.0
0.0022222222222222222 0.004615384615384615 0.0
0.0022222222222222222 0.006153846153846154 0.0
0.0022222222222222222 0.007692307692307693 0.0
0.0022222222222222222 0.00923076923076923 0.0
0.0022222222222222222 0.010769230769230769 0.0
0.0022222222222222222 0.012307692307692308 0.0
0.0022222222222222222 0.013846153846153847 0.0
0.0022222222222222222 0.015384615384615385 0.0
0.0022222222222222222 0.016923076923076923 0.0
0.0022222222222222222 0.01846153846153846 0.0
0.0022222222222222222 0.02 0.0
0.0022222222222222222 0.020555555555555556 0.0
0.0022222222222222222 0.021111111111111112 0.0
0.0022222222222222222 0.021666666666666667 0.0
0.0022222222222222222 0.022222222222222223 0.0
0.0022222222222222222 0.02277777777777778 0.0
0.0022222222222222222 0.023333333333333334 0.0
0.0022222222222222222 0.02388888888888889 0.0
0.0022222222222222222 0.024444444444444446 0.0
0.0022222222222222222 0.025 0.0
0.0022222222222222222 0.036111111111111115 0.0
0.0022222222222222222 0.04722222222222222 0.0
0.0022222222222222222 0.058333333333333334 0.0
0.0022222222222222222 0.06944444444444445 0.0
0.0022222222222222222 0.08055555555555556 0.0
0.0022222222222222222 0.09166666666666667 0.0
0.0022222222222222222 0.10277777777777777 0.0
0.0022222222222222222 0.1138888888888889 0.0
0.0022222222222222222 0.125 0.0
0.0022222222222222222 0.12555555555555556 0.0
0.0022222222222222222 0.12611111111111112 0.0
0.0022222222222222222 0.12666666666666668 0.0
0.0022222222222222222 0.1272222222222222 0.0
0.0022222222222222222 0.12777777777777777 0.0
0.0022222222222222222 0.12833333333333333 0.0
0.0022222222222222222 0.1288888888888889 0.0
0.0022222222222222222 0.12944444444444445 0.0
0.0022222222222222222 0.13 0.0
0.002777777777777778 0.0 0.0
0.002777777777777778 0.0015384615384615385 0.0
0.002777777777777778 0.003076923076923077 0.0
0.002777777777777778 0.004615384615384615 0.0
0.002777777777777778 0.006153846153846154 0.0
0.002777777777777778 0.007692307692307693 0.0
0.002777777777777778 0.00923076923076923 0.0
0.002777777777777778 0.010769230769230769 0.0
0.002777777777777778 0.012307692307692308 0.0
0.002777777777777778 0.013846153846153847 0.0
0.002777777777777778 0.015384615384615385 0.0
0.002777777777777778 0.016923076923076923 0.0
0.002777777777777778 0.01846153846153846 0.0
0.002777777777777778 0.02 0.0
0.002777777777777778 0.020555555555555556 0.0
0.002777777777777778 0.021111111111111112 0.0
0.002777777777777778 0.021666666666666667 0.0
0.002777777777777778 0.022222222222222223 0.0
0.002777777777777778 0.02277777777777778 0.0
0.002777777777777778 0.023333333333333334 0.0
0.002777777777777778 0.02388888888888889 0.0
0.002777777777777778 0.024444444444444446 0.0
0.002777777777777778 0.025 0.0
0.002777777777777778 0.036111111111111115 0.0
0.002777777777777778 0.04722222222222222 0.0
0.002777777777777778 0.058333333333333334 0.0
0.002777777777777778 0.06944444444444445 0.0
0.002777777777777778 0.08055555555555556 0.0
0.002777777777777778 0.09166666666666667 0.0
0.002777777777777778 0.10277777777777777 0.0
0.002777777777777778 0.1138888888888889 0.0
0.002777777777777778 0.125 0.0
0.002777777777777778 0.12555555555555556 0.0
0.002777777777777778 0.12611111111111112 0.0
[...]
POINT_DATA 1353
SCALARS Temperatura float 1
LOOKUP_TABLE default
86.74766264518965
86.2106959711
85.67940044066995
85.15340628253412
84.63237978153217
84.11591574992724
83.60349918922363
83.09445798140668
82.58790034479884
82.08259866864957
81.57686356720167
81.06789131696608
80.55227380997714
80.01194431873476
79.3145126491564
78.64978751619395
77.99525767258905
77.34691030946878
76.70221175753268
76.05950343046254
75.41758048518948
74.77557958279715
74.13295648677557
62.894536298243814
58.814028749591095
57.61408998598369
57.20879604732861
57.07601523999366
57.00765546334896
56.911463270045395
56.61788937044292
55.827902871216864
55.78528769342
55.74321551302555
55.701765105592514
55.66100307074241
55.62098467751142
55.58175452471615
55.54334694821591
55.50578620270335
55.46908649929887
86.76756066192905
86.23048131532322
85.6990459947106
85.17291727005997
84.6517618381412
84.1351774612536
83.62265158301258
83.11351659583696
82.60688391177386
82.1015495918614
81.59578434425661
81.08711573390899
80.57089886405936
80.03768140204632
79.36840438481943
78.7060075989369
78.05270967550157
77.40481059255566
76.76024171562399
76.11746454297459
75.47531575971199
74.83293497969981
74.1897643989249
62.9262901716145
58.85281474959516
57.65257970838282
57.24757112589483
57.11484314803151
57.046518388288
56.95030755629528
56.657266917590476
55.865269774637845
55.82256429977607
55.78040893108305
55.738882050292965
55.698049870113934
55.65796737503254
55.618679012558104
55.58021907859185
55.542611850225185
55.50587157299736
86.78755598915991
86.25042240556357
85.71888845699588
85.1926676879131
84.67143554811034
84.15479708794533
83.6422481358882
83.13313254525634
82.62658159891642
82.12141820087851
81.61599129187071
81.10791643821425
80.59298774662385
80.06689080700247
79.4100003776785
78.75630471858813
78.10697576221092
77.46151364349157
76.81855362331001
76.17685465981982
75.5353434656713
74.89315343401337
74.24967485202507
62.93365548551122
58.88988179084417
57.691106083602314
57.28781384399939
57.15550576569948
57.087430472704234
56.99135221716405
56.70052995101699
55.904096778751665
55.86120790434246
55.818889481571745
55.77721838861286
55.73625944168661
55.69606663327921
55.656683898414364
55.618145401514816
55.58047549309077
55.54368852945974
86.80767800883416
86.27052029654119
85.73892708476542
85.2126557861838
84.6913982344375
84.17477098536743
83.66228353130776
83.15329908347039
82.64697931412509
82.14219756254217
81.63740700771442
81.13038108369773
80.6178487869912
80.09773762755029
79.44960506383018
78.803269647699
78.15936188914883
77.51772381735998
76.8776267931389
76.23808750706341
75.59809798247375
74.95673300201005
74.31325736408705
62.916119531895916
58.92548475259353
57.72960054270536
57.32955055311978
57.19799787401023
57.130400546310845
57.03458089105073
56.74771559308484
55.94436402806713
55.901199981163096
55.85864031877862
55.81675877560308
55.77561745008544
55.735268583749175
55.695755375264426
55.65711197529542
55.619363040350585
55.58252322563952
86.82794197850022
86.29077863493136
85.75916027873808
85.2328785682268
84.7116454318374
84.19509298441412
83.6827492530483
83.17400377108062
82.6680589189275
82.16385741961662
81.65997489517179
81.15444308870667
80.6448277591346
80.12996989928678
79.48911489975875
78.84945424471532
78.21124101403701
77.57431234324295
76.93810509090113
76.30176306245795
75.66425476929201
75.0244935077265
74.38148848240448
62.87282664971038
58.960059844802636
57.76794398169779
57.37282610867089
57.2423087138508
57.175442472176954
57.079964111816075
56.79888399123786
55.98603632275676
55.94250835547475
55.899632772217615
55.857477447069705
55.81609988087614
55.77554981560464
55.73586989311752
55.69709482960398
55.65925016346039
55.62235121262799
86.84835603380807
86.31120012353115
85.7795858710249
85.2533317101965
84.73217091418115
84.21575454380161
83.70363349900771
83.19522969882298
82.68979549667203
82.18635644630429
81.68363119676188
81.17995056686388
80.67350765211549
80.16350365586428
79.52928739883964
78.89599665270445
78.26366199460612
77.63205184767881
77.00063049872038
76.36854909393517
75.73465718822345
75.09756155318075
74.45580288989008
62.802549661769305
58.99424058485922
57.80595929467351
57.41770688667142
57.28842071650618
57.22257598816697
57.12745824165728
56.854119737804666
56.0290613001628
55.98508679488437
55.94182713183289
55.899339635450325
55.8576743095358
55.81687813109551
55.77699436525922
55.73805984989713
55.700102021702406
55.66313741461426
86.86892399112207
86.33178565113286
85.80020081150742
85.27400958941595
84.7529667384949
84.23674486166851
83.72492142224121
83.21695585609974
82.7121578990597
82.20964588586733
81.70829658111776
81.20673598637578
80.70360915601671
80.19826840042181
79.57044291235908
78.94345667761314
78.31722229405705
77.69146921278298
77.06568086656058
76.43902131203821
75.81018921233648
75.17733474683563
74.53818196400526
62.70364460151568
59.02888198833027
57.84340021479266
57.46428528987744
57.33630760450692
57.2718279544568
57.17700390518701
56.91353399276106
56.07336651619019
56.02887450356891
55.985174890129784
55.94230457163603
55.900302457741645
55.8592133397858
55.8190861689503
55.779962402933876
55.74187273450921
55.70483556101862
86.88964663430949
86.35253419279758
85.8210009107359
85.29490528862253
84.77402331315962
84.25805101819871
83.74659541157648
83.2391575258672
82.73510990898772
82.23367047855268
81.7338808825847
81.23463944478335
80.734925241165
80.23417832040664
79.61269143017007
78.99207199303362
78.37219043306867
77.75279170392201
77.13343674584918
76.51340977799492
75.8915310145797
75.26536361542063
74.63130589539954
62.57398075484281
59.06509560458311
57.879935522154454
57.51268609889996
57.385931717223585
57.32323408880411
57.22852383402451
56.97726749179355
56.11885492143929
56.073796033039436
56.02962142812652
55.9863365387886
55.94394220154655
55.90250741174718
55.86209255077805
55.82274651810551
55.784504509697776
55.74738730886002
86.91052240327201
86.37344292344311
85.84198071378438
85.31601059713059
84.79532948290597
84.27965814547993
83.76863538775078
83.26180680568126
82.75861126121583
82.25836978319444
81.76028868569246
81.26351297759847
80.7672856626432
80.27112886273393
79.65601935999878
79.04187916411834
78.42858873578669
77.81595955329993
77.20370248099921
76.59137659732771
75.9782584104748
75.36321376850441
74.73881417061703
62.41083244974642
59.104299764975245
57.915127111845656
57.563075213115205
57.43724036321025
57.3768412327542
57.28192027207003
57.04549366243436
56.16540186939752
56.1196907189775
56.07518187844926
56.03140536189415
55.98854715821945
55.94670290859992
55.90594906992443
55.866343500855024
55.82792640498145
55.79072105964077
86.93154782327659
86.39450738234206
85.86313347120513
85.33731602926701
84.81687262722028
84.30154961473008
83.79101912243769
83.28487317214538
82.7826185971249
82.28367986054471
81.78742304179019
81.29321873998616
80.80053830002412
80.30899937987367
79.70033661940329
79.09278633333551
78.48626677271675
77.8806834160782
77.27593673179419
76.67194702723116
76.06871341182834
75.46643601280854
59.929062853925345
59.929062853925345
59.929062853925345
59.929062853925345
59.929062853925345
59.929062853925345
59.929062853925345
59.929062853925345
59.929062853925345
59.929062853925345
56.16705749156647
56.12186556152874
56.07748050067695
56.03406087929007
55.99172925703105
55.95057698275622
55.91067003578919
55.872052827306284
55.83475058614811
87.35043758542277
86.81469518459308
86.28658360465182
85.7661669244411
85.25355352475351
84.7489064506234
84.25246019921447
83.76454512429106
83.28562080074505
82.81631965534788
82.35750135101159
81.91031783545293
81.47629576234782
81.05746625493919
80.55011298862695
80.0466913829665
79.54775291814431
79.05388289277478
78.5657060730746
78.08388838943755
77.60913005527306
77.14214197893935
59.929062853925345
59.929062853925345
59.929062853925345
59.929062853925345
59.929062853925345
59.929062853925345
59.929062853925345
59.929062853925345
59.929062853925345
59.929062853925345
57.06907452289541
56.99933058974643
56.9343521101953
56.87393213260273
56.81790342778929
56.766134346371466
56.71852503707174
56.67500477351282
56.63553016445417
87.73963654243865
87.20477722056287
86.6786680536942
86.16135470663477
85.65290793947769
85.15342209356075
84.66301183564838
84.18180611738268
83.70993780313485
83.24752677839408
82.79465366866272
82.3513202360058
81.91738898393483
81.49248535299549
80.97173752541639
80.45299993127176
79.93608708991076
79.42078985263652
78.90686887579156
78.39404859103045
77.88201282378614
77.37040420782762
59.929062853925345
59.929062853925345
59.929062853925345
59.929062853925345
59.929062853925345
59.929062853925345
59.929062853925345
59.929062853925345
59.929062853925345
59.929062853925345
57.31318498568453
57.259387249408675
57.20748645910694
57.15759369159268
57.10979683267002
57.06416350071838
57.0207434667644
56.97957041947911
56.94066317154583
88.04919325336071
87.51457738714213
86.98867593280823
86.47149715716577
85.96304902854888
85.46333779378266
84.97236619148823
84.49013154847897
84.01662422370858
83.55182720911382
83.09571819578582
82.64827623321113
82.2094969489221
81.77942433293205
81.25244015841267
80.72774012499842
80.20536925986148
79.68538206460809
79.16784584306494
78.65284418773813
78.14048038698478
77.63088023972651
59.929062853925345
59.929062853925345
59.929062853925345
59.929062853925345
59.929062853925345
59.929062853925345
59.929062853925345
59.929062853925345
59.929062853925345
59.929062853925345
57.403348177302064
57.34920967046525
57.297321132991755
57.24764536212322
57.20015345749128
57.15482330581045
57.11163837541582
57.07058683522676
57.03166095305113
88.27391743562977
87.73935851534306
87.21325580893371
86.69561314718548
86.18643237302918
85.68571350781494
85.19345501540965
84.7096541790245
84.23430756053834
83.76741141454248
83.3089617517492
82.85895340960151
82.4173767377454
81.98420888037533
81.45309935418558
80.92416451130345
80.39738977817993
79.8727572110246
79.35024417173447
78.82982184789661
78.31145364693306
77.79509356695343
59.929062853925345
59.929062853925345
59.929062853925345
59.929062853925345
59.929062853925345
59.929062853925345
59.929062853925345
59.929062853925345
59.929062853925345
59.929062853925345
57.43057035888343
57.37761740984392
57.32665127554281
57.27768315597251
57.23072099955104
57.18577014459668
57.14283381651026
57.10191348834639
57.063009125348614
88.42468215690396
87.89015176304235
87.36388617980202
86.8458895342269
86.33616415412354
85.8347105422221
85.34152732209257
84.85661113836312
84.37995649821288
83.91155555957815
83.4513979165114
82.99947053577515
82.55575825322235
82.12024582336421
81.58610141919905
81.05412279237355
80.52431032538489
79.99666540288159
79.47119088177735
78.94789164314696
78.4267752314623
77.90785256893386
59.929062853925345
59.929062853925345
59.929062853925345
59.929062853925345
59.929062853925345
59.929062853925345
59.929062853925345
59.929062853925345
59.929062853925345
59.929062853925345
57.439882177768865
57.38700882089302
57.33614396764042
57.2872822721293
57.24041936085059
57.195551583987154
57.15267582681473
57.11178937444915
57.072889821023715
88.51125962615713
87.97674438105743
87.45038147378924
86.93217494559975
86.42212705252042
85.92023826396729
85.4265072672646
84.94093098521569
84.46350461549353
83.99422169964951
83.53307422155054
83.08005270808157
82.63514622481075
82.19834195398147
81.66252700635638
81.12886342803827
80.5973484981313
80.06797911591649
79.54075163460811
79.01566165691328
78.49270378504531
77.97187132180099
59.929062853925345
59.929062853925345
59.929062853925345
59.929062853925345
59.929062853925345
59.929062853925345
59.929062853925345
59.929062853925345
59.929062853925345
59.929062853925345
57.44273123029682
57.3899553274999
57.33916518808976
57.29036025345166
57.243539564314325
57.19870185700943
57.15584563484402
57.11496921851547
57.076070779545944
88.53947886625022
88.00496837300733
87.47857321110227
86.96029746976066
86.45014351275165
85.94811198514006
85.45420182105936
84.96841024903496
84.49073278957104
84.02116323836788
83.55969362990746
83.10631418698662
82.66101330207947
82.22377771083767
81.68740295891065
81.15317590449405
80.62109481067817
80.09115807459857
79.56336432287009
79.03771253246029
78.51420218331937
77.99283344772037
59.929062853925345
59.929062853925345
59.929062853925345
59.929062853925345
59.929062853925345
59.929062853925345
59.929062853925345
59.929062853925345
59.929062853925345
59.929062853925345
57.44339826374451
57.39062807499872
57.33984633348628
57.29105061059073
57.24423864693373
57.19940829359017
57.156557469147955
57.11568412971617
57.076786249235646
88.51125962615764
87.97674438105797
87.45038147378975
86.93217494560025
86.42212705252084
85.92023826396765
85.42650726726492
84.94093098521604
84.46350461549392
83.99422169964993
83.53307422155095
83.08005270808201
82.63514622481121
82.19834195398191
81.66252700635687
81.12886342803874
80.59734849813174
80.06797911591688
79.54075163460848
79.01566165691366
78.49270378504569
77.97187132180142
59.929062853925345
59.929062853925345
59.929062853925345
59.929062853925345
59.929062853925345
59.929062853925345
59.929062853925345
59.929062853925345
59.929062853925345
59.929062853925345
57.442731230297404
57.38995532750051
57.33916518809039
57.29036025345229
57.243539564314965
57.19870185701011
57.15584563484471
57.11496921851616
57.07607077954664
88.42468215690475
87.89015176304314
87.3638861798028
86.84588953422767
86.3361641541243
85.83471054222285
85.34152732209328
84.85661113836385
84.37995649821357
83.91155555957883
83.45139791651206
82.99947053577583
82.55575825322303
82.12024582336493
81.58610141919974
81.05412279237423
80.52431032538558
79.99666540288227
79.47119088177803
78.94789164314764
78.426775231463
77.90785256893452
59.929062853925345
59.929062853925345
59.929062853925345
59.929062853925345
59.929062853925345
59.929062853925345
59.929062853925345
59.929062853925345
59.929062853925345
59.929062853925345
57.43988217777024
57.3870088208944
57.33614396764182
57.28728227213074
57.24041936085203
57.19555158398859
57.15267582681618
57.111789374450616
57.072889821025186
88.27391743563035
87.7393585153436
87.21325580893422
86.69561314718598
86.18643237302965
85.68571350781536
85.19345501541007
84.70965417902488
84.2343075605387
83.76741141454285
83.30896175174962
82.85895340960197
82.41737673774591
81.98420888037585
81.45309935418611
80.92416451130397
80.39738977818044
79.87275721102509
79.35024417173487
78.82982184789694
78.31145364693334
77.79509356695371
59.929062853925345
59.929062853925345
59.929062853925345
59.929062853925345
59.929062853925345
59.929062853925345
59.929062853925345
59.929062853925345
59.929062853925345
59.929062853925345
57.430570358886754
57.377617409847346
57.3266512755463
57.277683155976
57.2307209995545
57.1857701446001
57.1428338165136
57.10191348834964
57.063009125351826
88.04919325336108
87.51457738714252
86.98867593280869
86.47149715716625
85.96304902854935
85.46333779378314
84.97236619148872
84.49013154847945
84.01662422370912
83.55182720911435
83.0957181957863
82.6482762332116
82.20949694892252
81.77942433293246
81.2524401584131
80.7277401249988
80.20536925986191
79.68538206460856
79.16784584306549
78.65284418773874
78.14048038698542
77.63088023972715
59.929062853925345
59.929062853925345
59.929062853925345
59.929062853925345
59.929062853925345
59.929062853925345
59.929062853925345
59.929062853925345
59.929062853925345
59.929062853925345
57.40334817730478
57.349209670468014
57.29732113299457
57.247645362126086
57.2001534574942
57.15482330581341
57.11163837541881
57.07058683522981
57.03166095305419
87.73963654243836
87.2047772205626
86.67866805369388
86.1613547066344
85.65290793947732
85.15342209356041
84.66301183564804
84.18180611738235
83.7099378031345
83.24752677839378
82.79465366866252
82.35132023600565
81.91738898393469
81.49248535299537
80.97173752541627
80.45299993127166
79.93608708991066
79.42078985263643
78.90686887579143
78.3940485910303
77.88201282378594
77.37040420782738
59.929062853925345
59.929062853925345
59.929062853925345
59.929062853925345
59.929062853925345
59.929062853925345
59.929062853925345
59.929062853925345
59.929062853925345
59.929062853925345
57.31318498568657
57.25938724941075
57.207486459109035
57.15759369159477
57.10979683267211
57.06416350072048
57.02074346676647
56.979570419481135
56.940663171547854
87.35043758542207
86.8146951845924
86.28658360465114
85.76616692444043
85.2535535247528
84.74890645062274
84.25246019921389
83.76454512429046
83.28562080074448
82.81631965534737
82.35750135101114
81.91031783545257
81.47629576234748
81.0574662549389
80.55011298862671
80.04669138296624
79.54775291814407
79.05388289277452
78.56570607307435
78.08388838943729
77.60913005527276
77.14214197893901
59.929062853925345
59.929062853925345
59.929062853925345
59.929062853925345
59.929062853925345
59.929062853925345
59.929062853925345
59.929062853925345
59.929062853925345
59.929062853925345
57.06907452289679
56.99933058974784
56.93435211019677
56.87393213260425
56.81790342779081
56.76613434637299
56.71852503707328
56.67500477351439
56.63553016445574
86.93154782327568
86.39450738234115
85.86313347120434
85.33731602926635
84.81687262721981
84.3015496147297
83.79101912243733
83.28487317214505
82.78261859712458
82.28367986054435
81.78742304178982
81.29321873998575
80.80053830002377
80.30899937987337
79.7003366194031
79.09278633333545
78.4862667727168
77.88068341607838
77.27593673179445
76.67194702723147
76.06871341182872
75.46643601280896
59.929062853925345
59.929062853925345
59.929062853925345
59.929062853925345
59.929062853925345
59.929062853925345
59.929062853925345
59.929062853925345
59.929062853925345
59.929062853925345
56.167057491568094
56.121865561530406
56.07748050067862
56.03406087929175
55.99172925703276
55.95057698275795
55.91067003579089
55.87205282730794
55.83475058614977
86.9105224032711
86.37344292344216
85.84198071378361
85.31601059712995
84.79532948290553
84.27965814547954
83.76863538775041
83.26180680568098
82.75861126121548
82.25836978319407
81.76028868569205
81.26351297759801
80.76728566264273
80.27112886273368
79.6560193599986
79.04187916411827
78.42858873578676
77.8159595533001
77.2037024809995
76.59137659732808
75.97825841047516
75.3632137685048
74.73881417061745
62.41083244974785
59.10429976497514
57.91512711184552
57.563075213116115
57.437240363210655
57.37684123275477
57.2819202720706
57.0454936624336
56.16540186939909
56.11969071897907
56.075181878450884
56.03140536189578
55.98854715822111
55.946702908601566
55.90594906992604
55.86634350085665
55.8279264049831
55.790721059642394
86.88964663430856
86.3525341927966
85.82100091073511
85.29490528862196
84.77402331315916
84.25805101819836
83.74659541157612
83.23915752586691
82.73510990898737
82.23367047855234
81.73388088258427
81.2346394447829
80.73492524116456
80.2341783204064
79.61269143016996
78.99207199303358
78.37219043306874
77.75279170392221
77.13343674584948
76.51340977799528
75.89153101458012
75.26536361542107
74.6313058954
62.573980754844285
59.06509560458307
57.87993552215432
57.51268609890092
57.38593171722402
57.323234088804696
57.22852383402511
56.97726749179278
56.11885492144086
56.073796033041035
56.02962142812812
55.986336538790184
55.94394220154814
55.90250741174879
55.86209255077965
55.82274651810709
55.784504509699346
55.74738730886161
86.86892399112106
86.33178565113192
85.80020081150657
85.27400958941536
84.75296673849445
84.2367448616681
83.72492142224084
83.21695585609945
82.71215789905939
82.20964588586698
81.70829658111737
81.20673598637543
80.70360915601628
80.19826840042158
79.57044291235897
78.94345667761316
78.31722229405712
77.69146921278316
77.06568086656088
76.43902131203858
75.81018921233691
75.17733474683614
74.53818196400584
62.703644601517155
59.02888198833032
57.8434002147926
57.46428528987843
57.33630760450734
57.27182795445741
57.17700390518768
56.91353399276036
56.07336651619179
56.028874503570485
55.98517489013135
55.94230457163755