# vtk DataFile Version 2.0
Niestacjonarne zagadnienie cieplne - ogrzewanie wody w garnku stalowym
ASCII
DATASET UNSTRUCTURED_GRID
POINTS 1353 float
0.0 0.0 0.0
0.0 0.0015384615384615385 0.0
0.0 0.003076923076923077 0.0
0.0 0.004615384615384615 0.0
0.0 0.006153846153846154 0.0
0.0 0.007692307692307693 0.0
0.0 0.00923076923076923 0.0
0.0 0.010769230769230769 0.0
0.0 0.012307692307692308 0.0
0.0 0.013846153846153847 0.0
0.0 0.015384615384615385 0.0
0.0 0.016923076923076923 0.0
0.0 0.01846153846153846 0.0
0.0 0.02 0.0
0.0 0.020555555555555556 0.0
0.0 0.021111111111111112 0.0
0.0 0.021666666666666667 0.0
0.0 0.022222222222222223 0.0
0.0 0.02277777777777778 0.0
0.0 0.023333333333333334 0.0
0.0 0.02388888888888889 0.0
0.0 0.024444444444444446 0.0
0.0 0.025 0.0
0.0 0.036111111111111115 0.0
0.0 0.04722222222222222 0.0
0.0 0.058333333333333334 0.0
0.0 0.06944444444444445 0.0
0.0 0.08055555555555556 0.0
0.0 0.09166666666666667 0.0
0.0 0.10277777777777777 0.0
0.0 0.1138888888888889 0.0
0.0 0.125 0.0
0.0 0.12555555555555556 0.0
0.0 0.12611111111111112 0.0
0.0 0.12666666666666668 0.0
0.0 0.1272222222222222 0.0
0.0 0.12777777777777777 0.0
0.0 0.12833333333333333 0.0
0.0 0.1288888888888889 0.0
0.0 0.12944444444444445 0.0
0.0 0.13 0.0
5.555555555555556E-4 0.0 0.0
5.555555555555556E-4 0.0015384615384615385 0.0
5.555555555555556E-4 0.003076923076923077 0.0
5.555555555555556E-4 0.004615384615384615 0.0
5.555555555555556E-4 0.006153846153846154 0.0
5.555555555555556E-4 0.007692307692307693 0.0
5.555555555555556E-4 0.00923076923076923 0.0
5.555555555555556E-4 0.010769230769230769 0.0
5.555555555555556E-4 0.012307692307692308 0.0
5.555555555555556E-4 0.013846153846153847 0.0
5.555555555555556E-4 0.015384615384615385 0.0
5.555555555555556E-4 0.016923076923076923 0.0
5.555555555555556E-4 0.01846153846153846 0.0
5.555555555555556E-4 0.02 0.0
5.555555555555556E-4 0.020555555555555556 0.0
5.555555555555556E-4 0.021111111111111112 0.0
5.555555555555556E-4 0.021666666666666667 0.0
5.555555555555556E-4 0.022222222222222223 0.0
5.555555555555556E-4 0.02277777777777778 0.0
5.555555555555556E-4 0.023333333333333334 0.0
5.555555555555556E-4 0.02388888888888889 0.0
5.555555555555556E-4 0.024444444444444446 0.0
5.555555555555556E-4 0.025 0.0
5.555555555555556E-4 0.036111111111111115 0.0
5.555555555555556E-4 0.04722222222222222 0.0
5.555555555555556E-4 0.058333333333333334 0.0
5.555555555555556E-4 0.06944444444444445 0.0
5.555555555555556E-4 0.08055555555555556 0.0
5.555555555555556E-4 0.09166666666666667 0.0
5.555555555555556E-4 0.10277777777777777 0.0
5.555555555555556E-4 0.1138888888888889 0.0
5.555555555555556E-4 0.125 0.0
5.555555555555556E-4 0.12555555555555556 0.0
5.555555555555556E-4 0.12611111111111112 0.0
5.555555555555556E-4 0.12666666666666668 0.0
5.555555555555556E-4 0.1272222222222222 0.0
5.555555555555556E-4 0.12777777777777777 0.0
5.555555555555556E-4 0.12833333333333333 0.0
5.555555555555556E-4 0.1288888888888889 0.0
5.555555555555556E-4 0.12944444444444445 0.0
5.555555555555556E-4 0.13 0.0
0.0011111111111111111 0.0 0.0
0.0011111111111111111 0.0015384615384615385 0.0
0.0011111111111111111 0.003076923076923077 0.0
0.0011111111111111111 0.004615384615384615 0.0
0.0011111111111111111 0.006153846153846154 0.0
0.0011111111111111111 0.007692307692307693 0.0
0.0011111111111111111 0.00923076923076923 0.0
0.0011111111111111111 0.010769230769230769 0.0
0.0011111111111111111 0.012307692307692308 0.0
0.0011111111111111111 0.013846153846153847 0.0
0.0011111111111111111 0.015384615384615385 0.0
0.0011111111111111111 0.016923076923076923 0.0
0.0011111111111111111 0.01846153846153846 0.0
0.0011111111111111111 0.02 0.0
0.0011111111111111111 0.020555555555555556 0.0
0.0011111111111111111 0.021111111111111112 0.0
0.0011111111111111111 0.021666666666666667 0.0
0.0011111111111111111 0.022222222222222223 0.0
0.0011111111111111111 0.02277777777777778 0.0
0.0011111111111111111 0.023333333333333334 0.0
0.0011111111111111111 0.02388888888888889 0.0
0.0011111111111111111 0.024444444444444446 0.0
0.0011111111111111111 0.025 0.0
0.0011111111111111111 0.036111111111111115 0.0
0.0011111111111111111 0.04722222222222222 0.0
0.0011111111111111111 0.058333333333333334 0.0
0.0011111111111111111 0.06944444444444445 0.0
0.0011111111111111111 0.08055555555555556 0.0
0.0011111111111111111 0.09166666666666667 0.0
0.0011111111111111111 0.10277777777777777 0.0
0.0011111111111111111 0.1138888888888889 0.0
0.0011111111111111111 0.125 0.0
0.0011111111111111111 0.12555555555555556 0.0
0.0011111111111111111 0.12611111111111112 0.0
0.0011111111111111111 0.12666666666666668 0.0
0.0011111111111111111 0.1272222222222222 0.0
0.0011111111111111111 0.12777777777777777 0.0
0.0011111111111111111 0.12833333333333333 0.0
0.0011111111111111111 0.1288888888888889 0.0
0.0011111111111111111 0.12944444444444445 0.0
0.0011111111111111111 0.13 0.0
0.0016666666666666666 0.0 0.0
0.0016666666666666666 0.0015384615384615385 0.0
0.0016666666666666666 0.003076923076923077 0.0
0.0016666666666666666 0.004615384615384615 0.0
0.0016666666666666666 0.006153846153846154 0.0
0.0016666666666666666 0.007692307692307693 0.0
0.0016666666666666666 0.00923076923076923 0.0
0.0016666666666666666 0.010769230769230769 0.0
0.0016666666666666666 0.012307692307692308 0.0
0.0016666666666666666 0.013846153846153847 0.0
0.0016666666666666666 0.015384615384615385 0.0
0.0016666666666666666 0.016923076923076923 0.0
0.0016666666666666666 0.01846153846153846 0.0
0.0016666666666666666 0.02 0.0
0.0016666666666666666 0.020555555555555556 0.0
0.0016666666666666666 0.021111111111111112 0.0
0.0016666666666666666 0.021666666666666667 0.0
0.0016666666666666666 0.022222222222222223 0.0
0.0016666666666666666 0.02277777777777778 0.0
0.0016666666666666666 0.023333333333333334 0.0
0.0016666666666666666 0.02388888888888889 0.0
0.0016666666666666666 0.024444444444444446 0.0
0.0016666666666666666 0.025 0.0
0.0016666666666666666 0.036111111111111115 0.0
0.0016666666666666666 0.04722222222222222 0.0
0.0016666666666666666 0.058333333333333334 0.0
0.0016666666666666666 0.06944444444444445 0.0
0.0016666666666666666 0.08055555555555556 0.0
0.0016666666666666666 0.09166666666666667 0.0
0.0016666666666666666 0.10277777777777777 0.0
0.0016666666666666666 0.1138888888888889 0.0
0.0016666666666666666 0.125 0.0
0.0016666666666666666 0.12555555555555556 0.0
0.0016666666666666666 0.12611111111111112 0.0
0.0016666666666666666 0.12666666666666668 0.0
0.0016666666666666666 0.1272222222222222 0.0
0.0016666666666666666 0.12777777777777777 0.0
0.0016666666666666666 0.12833333333333333 0.0
0.0016666666666666666 0.1288888888888889 0.0
0.0016666666666666666 0.12944444444444445 0.0
0.0016666666666666666 0.13 0.0
0.0022222222222222222 0.0 0.0
0.0022222222222222222 0.0015384615384615385 0.0
0.0022222222222222222 0.003076923076923077 0.0
0.0022222222222222222 0.004615384615384615 0.0
0.0022222222222222222 0.006153846153846154 0.0
0.0022222222222222222 0.007692307692307693 0.0
0.0022222222222222222 0.00923076923076923 0.0
0.0022222222222222222 0.010769230769230769 0.0
0.0022222222222222222 0.012307692307692308 0.0
0.0022222222222222222 0.013846153846153847 0.0
0.0022222222222222222 0.015384615384615385 0.0
0.0022222222222222222 0.016923076923076923 0.0
0.0022222222222222222 0.01846153846153846 0.0
0.0022222222222222222 0.02 0.0
0.0022222222222222222 0.020555555555555556 0.0
0.0022222222222222222 0.021111111111111112 0.0
0.0022222222222222222 0.021666666666666667 0.0
0.0022222222222222222 0.022222222222222223 0.0
0.0022222222222222222 0.02277777777777778 0.0
0.0022222222222222222 0.023333333333333334 0.0
0.0022222222222222222 0.02388888888888889 0.0
0.0022222222222222222 0.024444444444444446 0.0
0.0022222222222222222 0.025 0.0
0.0022222222222222222 0.036111111111111115 0.0
0.0022222222222222222 0.04722222222222222 0.0
0.0022222222222222222 0.058333333333333334 0.0
0.0022222222222222222 0.06944444444444445 0.0
0.0022222222222222222 0.08055555555555556 0.0
0.0022222222222222222 0.09166666666666667 0.0
0.0022222222222222222 0.10277777777777777 0.0
0.0022222222222222222 0.1138888888888889 0.0
0.0022222222222222222 0.125 0.0
0.0022222222222222222 0.12555555555555556 0.0
0.0022222222222222222 0.12611111111111112 0.0
0.0022222222222222222 0.12666666666666668 0.0
0.0022222222222222222 0.1272222222222222 0.0
0.0022222222222222222 0.12777777777777777 0.0
0.0022222222222222222 0.12833333333333333 0.0
0.0022222222222222222 0.1288888888888889 0.0
0.0022222222222222222 0.12944444444444445 0.0
0.0022222222222222222 0.13 0.0
0.002777777777777778 0.0 0.0
0.002777777777777778 0.0015384615384615385 0.0
0.002777777777777778 0.003076923076923077 0.0
0.002777777777777778 0.004615384615384615 0.0
0.002777777777777778 0.006153846153846154 0.0
0.002777777777777778 0.007692307692307693 0.0
0.002777777777777778 0.00923076923076923 0.0
0.002777777777777778 0.010769230769230769 0.0
0.002777777777777778 0.012307692307692308 0.0
0.002777777777777778 0.013846153846153847 0.0
0.002777777777777778 0.015384615384615385 0.0
0.002777777777777778 0.016923076923076923 0.0
0.002777777777777778 0.01846153846153846 0.0
0.002777777777777778 0.02 0.0
0.002777777777777778 0.020555555555555556 0.0
0.002777777777777778 0.021111111111111112 0.0
0.002777777777777778 0.021666666666666667 0.0
0.002777777777777778 0.022222222222222223 0.0
0.002777777777777778 0.02277777777777778 0.0
0.002777777777777778 0.023333333333333334 0.0
0.002777777777777778 0.02388888888888889 0.0
0.002777777777777778 0.024444444444444446 0.0
0.002777777777777778 0.025 0.0
0.002777777777777778 0.036111111111111115 0.0
0.002777777777777778 0.04722222222222222 0.0
0.002777777777777778 0.058333333333333334 0.0
0.002777777777777778 0.06944444444444445 0.0
0.002777777777777778 0.08055555555555556 0.0
0.002777777777777778 0.09166666666666667 0.0
0.002777777777777778 0.10277777777777777 0.0
0.002777777777777778 0.1138888888888889 0.0
0.002777777777777778 0.125 0.0
0.002777777777777778 0.12555555555555556 0.0
0.002777777777777778 0.12611111111111112 0.0
[...]
POINT_DATA 1353
SCALARS Temperatura float 1
LOOKUP_TABLE default
50.08392047294846
49.5183115046195
48.96153489659379
48.41325231077218
47.87318360545308
47.34100431563728
46.81631573371457
46.29861223308927
45.78724172233303
45.2813412955812
44.77976268633368
44.280785603085214
43.7822692678145
43.27621051647955
42.639356749894745
42.01608735649007
41.39733120588589
40.781203337520786
40.16640334972936
39.55199358299647
38.9372566827722
38.321681333508465
37.704989230032844
26.888148729118566
22.97410424762386
21.831753401662997
21.449626329828924
21.330794795623536
21.28611383070824
21.253339556285866
21.17110157668097
20.961120706567808
20.95252385737215
20.94456539339795
20.937336227094683
20.93092122746212
20.925395922909463
20.9208240290865
20.917255837020935
20.914727315171255
20.91325969806671
50.09290215725606
49.52717130225989
48.97024520665807
48.42181771582499
47.8816088080719
47.34929644348748
46.824483599867165
46.30666731066558
45.795197862085615
45.2892230240532
44.78758122013962
44.2886827723063
43.789912944507996
43.28658399220067
42.66044704588408
42.03786765047141
41.419374897875414
40.80320261529689
40.18822431211644
39.57353811490841
38.95842759792753
38.34236387115193
37.72504323176984
26.88374172529013
22.976516177754178
21.833863424229897
21.452008807326482
21.33322388763303
21.28856310194708
21.255779582584847
21.173734315267357
20.962941346329263
20.954287251529685
20.946273316713143
20.938992561150364
20.93253163786562
20.92696739064281
20.92236437567895
20.918773341379683
20.916230459622366
20.914757031713474
50.10197231908952
49.53617664021588
48.979138011313076
48.43060076781947
47.89029272497479
47.357897597014976
46.83302412111477
46.31517659656004
45.80371659086003
45.297807048965154
44.79632317308041
44.297717801328865
43.799556556239104
43.29911574652527
42.67789595621083
42.05879835779336
41.441950304158176
40.82682028670892
40.2125366498757
39.59828147715113
38.98332754451511
38.36708558624075
37.74916801593675
26.856265475935967
22.97775027938623
21.836426331253136
21.456200739946308
21.337789330822922
21.293283549411864
21.260536071690638
21.17924322472245
20.966439980593847
20.95762947939472
20.949463228053595
20.94204068244846
20.935453819812025
20.929783261768467
20.925095839805216
20.921443424757918
20.918862599512487
20.917374742444743
50.11116086921747
49.54532912141158
48.98821317756107
48.43960043946175
47.899233601646976
47.36680534260393
46.841933856033016
46.32413563978467
45.812790006009635
45.30708740519432
44.80595418758285
44.30791892112427
43.810924922659254
43.31311244158944
42.69570386585062
42.079884165811926
41.46557038608382
40.8523532883967
40.23958085368973
39.62648495443655
39.012285979614525
38.39626817353992
37.77787655438272
26.805231027378245
22.9780517870182
21.839376528249513
21.462227746968157
21.34448762213572
21.30028111227452
21.267605036823724
21.18764209075161
20.971621813548
20.962548664870322
20.954126476850558
20.946466470900983
20.9396699125584
20.93382354176801
20.928997466074797
20.92524485034884
20.922602499037193
20.92109163588639
50.12048394290244
49.554633302601026
48.99747011717453
48.44881493494551
47.90842848790768
47.37601555814084
46.851207177044415
46.33353653349223
45.82240698070128
45.31704688300755
44.81644503024597
44.319250397074555
43.823754526683445
43.328472825169094
42.7145977806852
42.102104391306945
41.49076575902787
40.88016247241351
40.26967777337171
39.658530102988614
39.04582113356455
38.43061210024211
37.81205267511639
26.72982138726446
22.977840246477655
21.84259973152583
21.470133139823886
21.35331077138321
21.309564437319143
21.27697810024238
21.19895179121035
20.97849554491869
20.969040134865764
20.960245944151982
20.952243311579867
20.945147363877687
20.939052744812226
20.934032800793926
20.930141174062065
20.92741399861889
20.92587171389922
50.129950894485
49.56409314967326
49.006908064227446
48.458241591080856
47.917873250299735
47.3855225026773
46.860836257951796
46.3433684214508
45.83255215113378
45.32766185167974
44.82776075786384
44.33163971505075
43.83786756537605
43.345145569016665
42.73484503946222
42.12586960656627
41.51791771383467
40.91054634242543
40.30313269848301
39.69483889078012
39.08458795113763
38.47109189557985
37.853004519460605
26.628863160930738
22.97772509748055
21.845925741362787
21.479980793444202
21.364245212115726
21.32114533113246
21.288642283886016
21.21319998257598
20.987075456307394
20.97709511010043
20.96779247886799
20.9593281142896
20.95183579607447
20.94541799592301
20.94014902584834
20.936080575427788
20.933246224665677
20.93166450231602
50.13956708896618
49.57371115564367
49.01652574624403
48.46787688479544
47.92756258015841
47.39531887669397
46.8708111965205
46.35361768528316
45.843206195885074
45.33890374807798
44.83985761835621
44.345004512043836
43.853132819622346
43.363071325779
42.75652270570099
42.151336605548224
41.54719157445288
40.94365339758436
40.3401210503244
39.73574607063852
39.12927120566485
38.51893091436376
37.90255466228911
26.50078201175048
22.978529183263742
21.849117661592445
21.491859429337918
21.377270176127393
21.335039415963248
21.302579771464835
21.230420408592682
20.997385222878442
20.98669672605042
20.976716989890015
20.96765389783511
20.959662372673336
20.952846708492157
20.947276251489583
20.942996064214146
20.94003424143227
20.93840583354966
50.14933517501954
49.58348822601122
49.02632110842684
48.47771641099268
47.93749002023328
47.40539589759044
46.881120160786274
46.36426815449043
45.854346368395426
45.35073955189466
44.85268505829498
44.35926166383306
43.86944066054404
43.38217273190894
42.779604115696266
42.178501949576614
41.578570297238834
40.97943115050637
40.38057461171624
39.78126678009796
39.18035967418603
38.575493958992915
37.963191498022425
26.34353438084199
22.981322695493255
21.851856667006203
21.505888644212916
21.392355413821615
21.351267002188518
21.318767755789224
21.25065135794565
21.009465148166818
20.997807407856456
20.986930887125002
20.9771189604594
20.96852608188967
20.961244815285937
20.95532766088169
20.950806496161007
20.94770042439547
20.946019314578614
50.15925575723934
49.59342377477776
49.03629116571511
48.48775485313513
47.94764800292958
47.415743390907195
46.89174954916981
46.375301376505334
45.86594699026564
45.3631324401547
44.86618808427647
44.37432921922381
43.88669007676995
43.40235469155218
42.8039939388088
42.2072490766553
41.611882843720785
41.0176162235482
40.424103977110946
39.830886797560844
39.237262632419146
38.64217344238675
38.03832399539488
26.154502651969597
22.987471698174335
21.853720886344583
21.522227193574
21.409458105151938
21.369854115222047
21.337178836944297
21.273931482928997
21.023389329971593
21.010293160770203
20.998284024396664
20.98757093574643
20.978294336507
20.97049735158422
20.964201410340376
20.95941882219457
20.956156767223792
20.954418632650647
50.1693278069964
49.60351586908998
49.04643194932748
48.49798596800568
47.95802789776279
47.42634989395298
46.90268416681225
46.38669691373497
45.877979933874116
45.37604260278609
44.88030894024249
44.39012610982184
43.90478247821401
43.42350786357006
42.82955144333871
42.23738455335957
41.64684442812983
41.05777147481338
40.47002228272722
39.883498083295606
39.29820567002069
38.714379142709774
22.747055063684996
22.747055063684996
22.747055063684996
22.747055063684996
22.747055063684996
22.747055063684996
22.747055063684996
22.747055063684996
22.747055063684996
22.747055063684996
21.02395197579026
21.010497218300127
20.99880408919853
20.98880717079946
20.98047343701898
20.973784956204792
20.96873175749752
20.965308138186813
20.963510673067653
50.38234300211314
49.81739044707828
49.26257916024375
48.717953588546735
48.18358608796357
47.659584262130075
47.14610325276454
46.64336400139846
46.151678838572806
45.67148628404812
45.20339735873693
44.74825643689583
44.30722339337093
43.881893333987904
43.36679299295191
42.8559742258241
42.34987344734569
41.84895159868618
41.353697194320716
40.86462559436654
40.382269828335936
39.907155003164846
22.747055063684996
22.747055063684996
22.747055063684996
22.747055063684996
22.747055063684996
22.747055063684996
22.747055063684996
22.747055063684996
22.747055063684996
22.747055063684996
21.28287982142497
21.259077156561375
21.2384161526231
21.220847682575812
21.20632478904116
21.194806819934684
21.18626086674483
21.180662359275708
21.177995305085606
50.591893820489965
50.02756142741062
49.474262235847085
48.93203005721879
48.40091499066751
47.880982564230635
47.372311653568964
46.87499040052925
46.389108914044
45.91474688499488
45.451953382717406
45.00071479769836
44.560904233177205
44.132200426223896
43.608448363174965
43.08748009228946
42.56913767866571
42.05324475349842
41.539601686388984
41.02798134885847
40.51812666793269
40.009752110596175
22.747055063684996
22.747055063684996
22.747055063684996
22.747055063684996
22.747055063684996
22.747055063684996
22.747055063684996
22.747055063684996
22.747055063684996
22.747055063684996
21.346616445161413
21.327987864150142
21.311604531215977
21.29749599511949
21.28568714842
21.276197647743512
21.269041965107533
21.26422956721055
21.261765091985975
50.76028592948662
50.196120416322835
49.64303537224638
49.10103754693377
48.570131324413055
48.05031764171124
47.54159262136151
47.04394608615925
46.55736029880998
46.08180956995239
45.617261855735585
45.1636842586685
44.721055831339655
44.28939383656049
43.762198420602516
43.23802705508616
42.716906976959976
42.19887269223574
41.68396854186068
41.17225133528016
40.66379278207729
40.158681189329236
22.747055063684996
22.747055063684996
22.747055063684996
22.747055063684996
22.747055063684996
22.747055063684996
22.747055063684996
22.747055063684996
22.747055063684996
22.747055063684996
21.37054377771584
21.35159798586197
21.33503564821584
21.320843147715397
21.309008973003703
21.29952364359746
21.292379513530584
21.28757058584143
21.28509236973626
50.88165585306992
50.31752388340825
49.764338153885774
49.22210202537802
48.690815171426536
48.17047371418905
47.66107044271174
47.162595131302545
46.67503494110678
46.19837480614015
45.732597544800385
45.277683130191434
44.8336059363855
44.40032758310732
43.870946567088005
43.34451278030344
42.821005031791195
42.30039929171834
41.78266766187178
41.267777239080765
40.75568891814643
40.246356251397216
22.747055063684996
22.747055063684996
22.747055063684996
22.747055063684996
22.747055063684996
22.747055063684996
22.747055063684996
22.747055063684996
22.747055063684996
22.747055063684996
21.377286192796916
21.358695625748123
21.342407050884077
21.3284219295004
21.316740889887807
21.307363824764632
21.300290003214887
21.29551816383467
21.29304658254493
50.962321466356606
50.398204881517835
49.84493239277202
49.302507574302105
48.77093042342754
48.25019734916389
47.740301142372985
47.24123091224602
46.75297197672305
46.27550570957939
45.808809386992614
45.35285616972219
44.9076155678368
44.473055180304556
43.94201715189131
43.413927663624385
42.88877752776644
42.366558181672694
41.8472620634311
41.330883047925234
40.81741694136336
40.30686201437225
22.747055063684996
22.747055063684996
22.747055063684996
22.747055063684996
22.747055063684996
22.747055063684996
22.747055063684996
22.747055063684996
22.747055063684996
22.747055063684996
21.379565442136705
21.360979004776222
21.34470472459981
21.330738834817346
21.319077899895216
21.309718764348776
21.302658504064652
21.2978943880116
21.29542385118974
51.00831424833856
50.44420556975568
49.89088094015785
49.34834384260589
48.816594161850475
48.29562819005155
47.78543864060242
47.28601467597512
46.79734195704697
46.31940272063162
45.8521758846014
45.39563715545206
44.9497590461823
44.5145105525975
43.982583647914176
43.453598275346614
42.92754259062657
42.404404270852446
41.88417038759906
41.36682725105051
40.85236022119657
40.34075348647187
22.747055063684996
22.747055063684996
22.747055063684996
22.747055063684996
22.747055063684996
22.747055063684996
22.747055063684996
22.747055063684996
22.747055063684996
22.747055063684996
21.38022559775531
21.36166572494651
21.3454111979927
21.33145981851499
21.319809318724992
21.310457384779397
21.30340167693156
21.29863984476804
21.296169537703378
51.02324808260036
50.459141831854936
49.90579987275
49.36322571608647
48.8314193096449
48.31037705066387
47.80009180271824
47.30055291410781
46.81174623327946
46.33365411564842
45.866255417656554
45.40952548402455
44.96343616810236
44.52795601526195
43.995728350885074
43.46644085157302
42.94008245475523
42.416642031114016
41.8961084656982
41.378470758710044
40.86371815002263
40.351840269764786
22.747055063684996
22.747055063684996
22.747055063684996
22.747055063684996
22.747055063684996
22.747055063684996
22.747055063684996
22.747055063684996
22.747055063684996
22.747055063684996
21.380378728513374
21.361818930934433
21.34556563731434
21.331616039099288
21.31996742942153
21.310617188058266
21.303562769017404
21.298801691346295
21.29633153287884
51.00831424833883
50.44420556975595
49.8908809401581
49.348343842606134
48.81659416185069
48.29562819005174
47.78543864060261
47.286014675975316
46.79734195704718
46.31940272063185
45.85217588460163
45.3956371554523
44.94975904618255
44.514510552597756
43.982583647914446
43.45359827534686
42.92754259062682
42.404404270852666
41.884170387599276
41.36682725105072
40.85236022119678
40.3407534864721
22.747055063684996
22.747055063684996
22.747055063684996
22.747055063684996
22.747055063684996
22.747055063684996
22.747055063684996
22.747055063684996
22.747055063684996
22.747055063684996
21.380225597755516
21.361665724946718
21.345411197992913
21.331459818515203
21.31980931872521
21.31045738477962
21.303401676931788
21.29863984476826
21.29616953770359
50.96232146635704
50.39820488151827
49.84493239277245
49.30250757430252
48.770930423427934
48.25019734916428
47.74030114237335
47.24123091224637
46.75297197672339
46.275505709579726
45.808809386992955
45.35285616972253
44.90761556783715
44.47305518030492
43.94201715189166
43.413927663624726
42.888777527766784
42.366558181673035
41.84726206343144
41.330883047925575
40.81741694136371
40.30686201437258
22.747055063684996
22.747055063684996
22.747055063684996
22.747055063684996
22.747055063684996
22.747055063684996
22.747055063684996
22.747055063684996
22.747055063684996
22.747055063684996
21.37956544213716
21.360979004776684
21.34470472460028
21.33073883481783
21.3190778998957
21.309718764349256
21.302658504065136
21.29789438801209
21.29542385119023
50.88165585307021
50.31752388340852
49.76433815388603
49.222102025378256
48.69081517142676
48.17047371418928
47.66107044271195
47.162595131302744
46.67503494110698
46.19837480614034
45.732597544800605
45.27768313019167
44.833605936385766
44.4003275831076
43.870946567088296
43.34451278030373
42.82100503179148
42.3003992917186
41.78266766187198
41.267777239080935
40.755688918146575
40.246356251397344
22.747055063684996
22.747055063684996
22.747055063684996
22.747055063684996
22.747055063684996
22.747055063684996
22.747055063684996
22.747055063684996
22.747055063684996
22.747055063684996
21.37728619279815
21.358695625749384
21.34240705088536
21.32842192950168
21.316740889889072
21.307363824765886
21.30029000321611
21.295518163835855
21.293046582546108
50.7602859294868
50.196120416323026
49.6430353722466
49.10103754693401
48.5701313244133
48.05031764171149
47.54159262136177
47.04394608615951
46.55736029881025
46.081809569952654
45.61726185573583
45.16368425866874
44.721055831339875
44.2893938365607
43.762198420602736
43.238027055086334
42.71690697696016
42.198872692235945
41.683968541860935
41.172251335280436
40.66379278207757
40.15868118932952
22.747055063684996
22.747055063684996
22.747055063684996
22.747055063684996
22.747055063684996
22.747055063684996
22.747055063684996
22.747055063684996
22.747055063684996
22.747055063684996
21.37054377771682
21.35159798586297
21.335035648216852
21.320843147716435
21.309008973004758
21.29952364359853
21.292379513531664
21.287570585842527
21.285092369737363
50.59189382048981
50.02756142741047
49.474262235846915
48.93203005721859
48.4009149906673
47.88098256423046
47.37231165356878
46.87499040052907
46.38910891404382
45.91474688499473
45.45195338271731
45.0007147976983
44.56090423317716
44.132200426223875
43.608448363174936
43.087480092289454
42.5691376786657
42.05324475349842
41.539601686388956
41.027981348858425
40.51812666793263
40.00975211059608
22.747055063684996
22.747055063684996
22.747055063684996
22.747055063684996
22.747055063684996
22.747055063684996
22.747055063684996
22.747055063684996
22.747055063684996
22.747055063684996
21.346616445162148
21.327987864150888
21.311604531216727
21.297495995120237
21.285687148420752
21.27619764774426
21.269041965108272
21.264229567211274
21.261765091986707
50.38234300211277
49.81739044707792
49.262579160243384
48.71795358854637
48.18358608796321
47.65958426212974
47.14610325276424
46.643364001398155
46.15167883857253
45.671486284047866
45.20339735873672
44.74825643689566
44.30722339337076
43.88189333398776
43.36679299295179
42.85597422582398
42.349873447345594
41.84895159868607
41.35369719432061
40.864625594366416
40.38226982833581
39.907155003164725
22.747055063684996
22.747055063684996
22.747055063684996
22.747055063684996
22.747055063684996
22.747055063684996
22.747055063684996
22.747055063684996
22.747055063684996
22.747055063684996
21.282879821425475
21.25907715656189
21.238416152623632
21.220847682576363
21.20632478904171
21.19480681993523
21.18626086674539
21.180662359276276
21.17799530508617
50.16932780699589
49.60351586908948
49.04643194932704
48.49798596800531
47.95802789776251
47.426349893952725
46.90268416681204
46.3866969137348
45.87797993387394
45.37604260278589
44.88030894024226
44.39012610982161
43.90478247821382
43.423507863569874
42.82955144333857
42.237384553359504
41.64684442812982
41.05777147481343
40.47002228272732
39.883498083295756
39.29820567002087
38.71437914270995
22.747055063684996
22.747055063684996
22.747055063684996
22.747055063684996
22.747055063684996
22.747055063684996
22.747055063684996
22.747055063684996
22.747055063684996
22.747055063684996
21.02395197579082
21.0104972183007
20.99880408919911
20.988807170800044
20.980473437019576
20.97378495620539
20.968731757498105
20.96530813818739
20.96351067306823
50.159255757238824
49.593423774777214
49.03629116571468
48.48775485313476
47.94764800292928
47.415743390906954
46.891749549169575
46.375301376505135
45.86594699026543
45.36313244015448
44.86618808427624
44.37432921922354
43.88669007676974
43.40235469155202
42.80399393880868
42.207249076655245
41.611882843720785
41.01761622354827
40.42410397711106
39.830886797561
39.23726263241931
38.642173442386934
38.038323995395075
26.154502651970237
22.987471698174335
21.853720886344572
21.522227193574345
21.40945810515207
21.369854115222225
21.33717883694454
21.27393148292866
21.023389329972126
21.01029316077076
20.99828402439724
20.987570935747005
20.978294336507567
20.97049735158479
20.964201410340948
20.959418822195143
20.956156767224346
20.95441863265121
50.149335175019004
49.58348822601069
49.0263211084264
48.477716410992315
47.93749002023301
47.40539589759021
46.88112016078605
46.36426815449022
45.8543463683952
45.350739551894456
44.852685058294696
44.359261663832804
43.86944066054383
43.3821727319088
42.77960411569615
42.17850194957656
41.57857029723881
40.979431150506414
40.38057461171634
39.7812667800981
39.18035967418621
38.57549395899311
37.96319149802265
26.34353438084265
22.981322695493276
21.851856667006206
21.505888644213275
21.392355413821747
21.351267002188692
21.318767755789477
21.250651357945316
21.009465148167354
20.997807407857003
20.986930887125563
20.97711896045997
20.968526081890232
20.961244815286495
20.955327660882233
20.950806496161576
20.947700424396025
20.946019314579157
50.139567088965634
49.57371115564313
49.01652574624359
48.46787688479507
47.927562580158124
47.39531887669374
46.87081119652028
46.35361768528294
45.84320619588486
45.338903748077776
44.839857618355964
44.34500451204362
43.853132819622125
43.363071325778876
42.756522705700895
42.15133660554817