# vtk DataFile Version 2.0
Niestacjonarne zagadnienie cieplne - ogrzewanie wody w garnku stalowym
ASCII
DATASET UNSTRUCTURED_GRID
POINTS 1353 float
0.0 0.0 0.0
0.0 0.0015384615384615385 0.0
0.0 0.003076923076923077 0.0
0.0 0.004615384615384615 0.0
0.0 0.006153846153846154 0.0
0.0 0.007692307692307693 0.0
0.0 0.00923076923076923 0.0
0.0 0.010769230769230769 0.0
0.0 0.012307692307692308 0.0
0.0 0.013846153846153847 0.0
0.0 0.015384615384615385 0.0
0.0 0.016923076923076923 0.0
0.0 0.01846153846153846 0.0
0.0 0.02 0.0
0.0 0.020555555555555556 0.0
0.0 0.021111111111111112 0.0
0.0 0.021666666666666667 0.0
0.0 0.022222222222222223 0.0
0.0 0.02277777777777778 0.0
0.0 0.023333333333333334 0.0
0.0 0.02388888888888889 0.0
0.0 0.024444444444444446 0.0
0.0 0.025 0.0
0.0 0.036111111111111115 0.0
0.0 0.04722222222222222 0.0
0.0 0.058333333333333334 0.0
0.0 0.06944444444444445 0.0
0.0 0.08055555555555556 0.0
0.0 0.09166666666666667 0.0
0.0 0.10277777777777777 0.0
0.0 0.1138888888888889 0.0
0.0 0.125 0.0
0.0 0.12555555555555556 0.0
0.0 0.12611111111111112 0.0
0.0 0.12666666666666668 0.0
0.0 0.1272222222222222 0.0
0.0 0.12777777777777777 0.0
0.0 0.12833333333333333 0.0
0.0 0.1288888888888889 0.0
0.0 0.12944444444444445 0.0
0.0 0.13 0.0
5.555555555555556E-4 0.0 0.0
5.555555555555556E-4 0.0015384615384615385 0.0
5.555555555555556E-4 0.003076923076923077 0.0
5.555555555555556E-4 0.004615384615384615 0.0
5.555555555555556E-4 0.006153846153846154 0.0
5.555555555555556E-4 0.007692307692307693 0.0
5.555555555555556E-4 0.00923076923076923 0.0
5.555555555555556E-4 0.010769230769230769 0.0
5.555555555555556E-4 0.012307692307692308 0.0
5.555555555555556E-4 0.013846153846153847 0.0
5.555555555555556E-4 0.015384615384615385 0.0
5.555555555555556E-4 0.016923076923076923 0.0
5.555555555555556E-4 0.01846153846153846 0.0
5.555555555555556E-4 0.02 0.0
5.555555555555556E-4 0.020555555555555556 0.0
5.555555555555556E-4 0.021111111111111112 0.0
5.555555555555556E-4 0.021666666666666667 0.0
5.555555555555556E-4 0.022222222222222223 0.0
5.555555555555556E-4 0.02277777777777778 0.0
5.555555555555556E-4 0.023333333333333334 0.0
5.555555555555556E-4 0.02388888888888889 0.0
5.555555555555556E-4 0.024444444444444446 0.0
5.555555555555556E-4 0.025 0.0
5.555555555555556E-4 0.036111111111111115 0.0
5.555555555555556E-4 0.04722222222222222 0.0
5.555555555555556E-4 0.058333333333333334 0.0
5.555555555555556E-4 0.06944444444444445 0.0
5.555555555555556E-4 0.08055555555555556 0.0
5.555555555555556E-4 0.09166666666666667 0.0
5.555555555555556E-4 0.10277777777777777 0.0
5.555555555555556E-4 0.1138888888888889 0.0
5.555555555555556E-4 0.125 0.0
5.555555555555556E-4 0.12555555555555556 0.0
5.555555555555556E-4 0.12611111111111112 0.0
5.555555555555556E-4 0.12666666666666668 0.0
5.555555555555556E-4 0.1272222222222222 0.0
5.555555555555556E-4 0.12777777777777777 0.0
5.555555555555556E-4 0.12833333333333333 0.0
5.555555555555556E-4 0.1288888888888889 0.0
5.555555555555556E-4 0.12944444444444445 0.0
5.555555555555556E-4 0.13 0.0
0.0011111111111111111 0.0 0.0
0.0011111111111111111 0.0015384615384615385 0.0
0.0011111111111111111 0.003076923076923077 0.0
0.0011111111111111111 0.004615384615384615 0.0
0.0011111111111111111 0.006153846153846154 0.0
0.0011111111111111111 0.007692307692307693 0.0
0.0011111111111111111 0.00923076923076923 0.0
0.0011111111111111111 0.010769230769230769 0.0
0.0011111111111111111 0.012307692307692308 0.0
0.0011111111111111111 0.013846153846153847 0.0
0.0011111111111111111 0.015384615384615385 0.0
0.0011111111111111111 0.016923076923076923 0.0
0.0011111111111111111 0.01846153846153846 0.0
0.0011111111111111111 0.02 0.0
0.0011111111111111111 0.020555555555555556 0.0
0.0011111111111111111 0.021111111111111112 0.0
0.0011111111111111111 0.021666666666666667 0.0
0.0011111111111111111 0.022222222222222223 0.0
0.0011111111111111111 0.02277777777777778 0.0
0.0011111111111111111 0.023333333333333334 0.0
0.0011111111111111111 0.02388888888888889 0.0
0.0011111111111111111 0.024444444444444446 0.0
0.0011111111111111111 0.025 0.0
0.0011111111111111111 0.036111111111111115 0.0
0.0011111111111111111 0.04722222222222222 0.0
0.0011111111111111111 0.058333333333333334 0.0
0.0011111111111111111 0.06944444444444445 0.0
0.0011111111111111111 0.08055555555555556 0.0
0.0011111111111111111 0.09166666666666667 0.0
0.0011111111111111111 0.10277777777777777 0.0
0.0011111111111111111 0.1138888888888889 0.0
0.0011111111111111111 0.125 0.0
0.0011111111111111111 0.12555555555555556 0.0
0.0011111111111111111 0.12611111111111112 0.0
0.0011111111111111111 0.12666666666666668 0.0
0.0011111111111111111 0.1272222222222222 0.0
0.0011111111111111111 0.12777777777777777 0.0
0.0011111111111111111 0.12833333333333333 0.0
0.0011111111111111111 0.1288888888888889 0.0
0.0011111111111111111 0.12944444444444445 0.0
0.0011111111111111111 0.13 0.0
0.0016666666666666666 0.0 0.0
0.0016666666666666666 0.0015384615384615385 0.0
0.0016666666666666666 0.003076923076923077 0.0
0.0016666666666666666 0.004615384615384615 0.0
0.0016666666666666666 0.006153846153846154 0.0
0.0016666666666666666 0.007692307692307693 0.0
0.0016666666666666666 0.00923076923076923 0.0
0.0016666666666666666 0.010769230769230769 0.0
0.0016666666666666666 0.012307692307692308 0.0
0.0016666666666666666 0.013846153846153847 0.0
0.0016666666666666666 0.015384615384615385 0.0
0.0016666666666666666 0.016923076923076923 0.0
0.0016666666666666666 0.01846153846153846 0.0
0.0016666666666666666 0.02 0.0
0.0016666666666666666 0.020555555555555556 0.0
0.0016666666666666666 0.021111111111111112 0.0
0.0016666666666666666 0.021666666666666667 0.0
0.0016666666666666666 0.022222222222222223 0.0
0.0016666666666666666 0.02277777777777778 0.0
0.0016666666666666666 0.023333333333333334 0.0
0.0016666666666666666 0.02388888888888889 0.0
0.0016666666666666666 0.024444444444444446 0.0
0.0016666666666666666 0.025 0.0
0.0016666666666666666 0.036111111111111115 0.0
0.0016666666666666666 0.04722222222222222 0.0
0.0016666666666666666 0.058333333333333334 0.0
0.0016666666666666666 0.06944444444444445 0.0
0.0016666666666666666 0.08055555555555556 0.0
0.0016666666666666666 0.09166666666666667 0.0
0.0016666666666666666 0.10277777777777777 0.0
0.0016666666666666666 0.1138888888888889 0.0
0.0016666666666666666 0.125 0.0
0.0016666666666666666 0.12555555555555556 0.0
0.0016666666666666666 0.12611111111111112 0.0
0.0016666666666666666 0.12666666666666668 0.0
0.0016666666666666666 0.1272222222222222 0.0
0.0016666666666666666 0.12777777777777777 0.0
0.0016666666666666666 0.12833333333333333 0.0
0.0016666666666666666 0.1288888888888889 0.0
0.0016666666666666666 0.12944444444444445 0.0
0.0016666666666666666 0.13 0.0
0.0022222222222222222 0.0 0.0
0.0022222222222222222 0.0015384615384615385 0.0
0.0022222222222222222 0.003076923076923077 0.0
0.0022222222222222222 0.004615384615384615 0.0
0.0022222222222222222 0.006153846153846154 0.0
0.0022222222222222222 0.007692307692307693 0.0
0.0022222222222222222 0.00923076923076923 0.0
0.0022222222222222222 0.010769230769230769 0.0
0.0022222222222222222 0.012307692307692308 0.0
0.0022222222222222222 0.013846153846153847 0.0
0.0022222222222222222 0.015384615384615385 0.0
0.0022222222222222222 0.016923076923076923 0.0
0.0022222222222222222 0.01846153846153846 0.0
0.0022222222222222222 0.02 0.0
0.0022222222222222222 0.020555555555555556 0.0
0.0022222222222222222 0.021111111111111112 0.0
0.0022222222222222222 0.021666666666666667 0.0
0.0022222222222222222 0.022222222222222223 0.0
0.0022222222222222222 0.02277777777777778 0.0
0.0022222222222222222 0.023333333333333334 0.0
0.0022222222222222222 0.02388888888888889 0.0
0.0022222222222222222 0.024444444444444446 0.0
0.0022222222222222222 0.025 0.0
0.0022222222222222222 0.036111111111111115 0.0
0.0022222222222222222 0.04722222222222222 0.0
0.0022222222222222222 0.058333333333333334 0.0
0.0022222222222222222 0.06944444444444445 0.0
0.0022222222222222222 0.08055555555555556 0.0
0.0022222222222222222 0.09166666666666667 0.0
0.0022222222222222222 0.10277777777777777 0.0
0.0022222222222222222 0.1138888888888889 0.0
0.0022222222222222222 0.125 0.0
0.0022222222222222222 0.12555555555555556 0.0
0.0022222222222222222 0.12611111111111112 0.0
0.0022222222222222222 0.12666666666666668 0.0
0.0022222222222222222 0.1272222222222222 0.0
0.0022222222222222222 0.12777777777777777 0.0
0.0022222222222222222 0.12833333333333333 0.0
0.0022222222222222222 0.1288888888888889 0.0
0.0022222222222222222 0.12944444444444445 0.0
0.0022222222222222222 0.13 0.0
0.002777777777777778 0.0 0.0
0.002777777777777778 0.0015384615384615385 0.0
0.002777777777777778 0.003076923076923077 0.0
0.002777777777777778 0.004615384615384615 0.0
0.002777777777777778 0.006153846153846154 0.0
0.002777777777777778 0.007692307692307693 0.0
0.002777777777777778 0.00923076923076923 0.0
0.002777777777777778 0.010769230769230769 0.0
0.002777777777777778 0.012307692307692308 0.0
0.002777777777777778 0.013846153846153847 0.0
0.002777777777777778 0.015384615384615385 0.0
0.002777777777777778 0.016923076923076923 0.0
0.002777777777777778 0.01846153846153846 0.0
0.002777777777777778 0.02 0.0
0.002777777777777778 0.020555555555555556 0.0
0.002777777777777778 0.021111111111111112 0.0
0.002777777777777778 0.021666666666666667 0.0
0.002777777777777778 0.022222222222222223 0.0
0.002777777777777778 0.02277777777777778 0.0
0.002777777777777778 0.023333333333333334 0.0
0.002777777777777778 0.02388888888888889 0.0
0.002777777777777778 0.024444444444444446 0.0
0.002777777777777778 0.025 0.0
0.002777777777777778 0.036111111111111115 0.0
0.002777777777777778 0.04722222222222222 0.0
0.002777777777777778 0.058333333333333334 0.0
0.002777777777777778 0.06944444444444445 0.0
0.002777777777777778 0.08055555555555556 0.0
0.002777777777777778 0.09166666666666667 0.0
0.002777777777777778 0.10277777777777777 0.0
0.002777777777777778 0.1138888888888889 0.0
0.002777777777777778 0.125 0.0
0.002777777777777778 0.12555555555555556 0.0
0.002777777777777778 0.12611111111111112 0.0
[...]
POINT_DATA 1353
SCALARS Temperatura float 1
LOOKUP_TABLE default
103.31760373857504
102.79392207087287
102.27516359384418
101.76094416001415
101.25090524043581
100.74460421970727
100.24147238339175
99.74076117532324
99.24146949722055
98.74220440321723
98.24103230168663
97.73466096373106
97.21911256115774
96.67176193052693
95.95794793705966
95.28569064004739
94.62638445814676
93.97505172390855
93.32859883055951
92.68503839568686
92.0429407873034
91.40127659784777
90.75937084832938
79.56377603890704
75.50138586921585
74.3060683719709
73.90156003581382
73.76635061758178
73.68865036814006
73.5641435756418
73.17467432897591
72.12022466096312
72.06196745624612
72.00418697889573
71.94695345894077
71.89032227614848
71.8343368446747
71.7790308152061
71.72442947694815
71.67055047285773
71.61740406058215
103.34243257985005
102.81864248122264
102.29974883211437
101.78539989442686
101.27523767724115
100.76882274378812
100.26558915160165
99.76479367615877
99.26543875922633
98.76616099111706
98.26497477331037
97.7590101542897
97.24270647903887
96.7044570099788
96.02671363204516
95.3575361099408
94.69990990234365
94.04925821299389
93.40308470678585
92.75956063871897
92.11731674954734
91.47533640916458
90.8329369748718
79.61254452626305
75.55713015056077
74.36152229748471
73.95729773561868
73.8221423095165
73.7444831820099
73.61995348274652
73.23117060948196
72.17417446714187
72.11581324877665
72.05793830635649
72.00061824229964
71.94390697965858
71.8878468595228
71.83247089157781
71.77780407833102
71.72386399410566
71.67066091368476
103.36735724615612
102.84351772473092
102.32453183103195
101.81009901059812
101.29987042249633
100.7934145858131
100.29017509439792
99.78942203385469
99.29018154180966
98.7911222527195
98.29035549129095
97.78511982759636
97.2704108576036
96.7412004472305
96.07923263223476
95.4211254722091
94.76852526067067
94.12094703082572
93.47680261786981
92.83465852954792
92.19328258724589
91.55167811994417
90.9091268076786
79.63686486742026
75.61094620561671
74.41680628461835
74.01429164395645
73.87956441543571
73.80219281192129
73.67783855715926
73.29193498705281
72.22942865286704
72.17087615391335
72.11283775659619
72.05537665018133
71.99854205566709
71.94237297587841
71.88690053437882
71.83214898102035
71.7781357926652
71.72487136797582
103.39240689738845
102.8685486257219
102.34951159088851
101.83503945287511
101.3248004064011
100.81837558256535
100.31522408238182
99.81463850806749
99.31568100444194
98.81708088957852
98.31707762089779
97.81310468737024
97.30134522900433
96.77963886273048
96.12866781626545
95.47976831656256
94.83389533098087
94.19100591428868
93.5503378437104
92.91081124059622
92.27131489054382
91.63082720541178
90.9885266092804
79.63622335652374
75.66308802949249
74.47185176750664
74.0725679037736
73.93861101883996
73.86178932435459
73.73777682548082
73.35701514262487
72.28595551853081
72.22712994779764
72.16886494409877
72.11121322231757
72.05421538748057
71.99790482410053
71.94230994213179
71.8874543256256
71.8333557893322
71.78002524705748
103.4175964236148
102.89373844947289
102.37468608750041
101.86021771763572
101.35002252018353
100.84369868872196
100.34072635298908
99.84042868294797
99.34191592789422
98.84400085161158
98.34507230706767
97.84288434370414
97.33467826851358
96.81945169427298
96.1774456587501
95.53672915296659
94.89777411187205
94.26053567830674
93.62447734137677
92.98871212294169
92.35215172598164
91.71364548673795
91.0721395904934
79.60976305449176
75.7139904042392
74.5265398158938
74.13217117067516
73.99927029882761
73.92328886990184
73.7997293039885
73.42648906241946
72.34369912751413
72.28452979053174
72.22598636766352
72.16810344985835
72.1109079893667
72.05442576394933
71.99868275139768
71.94370312634001
71.88950633046348
71.83610464006934
103.44293345097633
102.91908937019461
102.40005256460094
101.8856287809023
101.37552965003326
100.86937416620756
100.36666839033082
99.86677301495952
99.36885720212223
98.87183296220572
98.37426294022212
97.87427116618296
97.3698846901732
96.86054025324503
96.22654594720669
95.59347585177608
94.96151248671869
94.33052223059894
93.70001214118821
93.06913358507641
92.4367104267414
91.80131136426456
91.1614349951274
79.556255660105
75.76428475084204
74.5806937050195
74.19316763747618
74.06152319978585
73.9867146962577
73.86363853547063
73.50046727870641
72.40257559815085
72.34301227778121
72.28415833693016
72.22601783477323
72.16859742873245
72.1119149374678
72.05599676992047
72.00087118468
71.94656167969646
71.89308326647098
103.46842114902753
102.94460160600843
102.42560722680744
101.91126613579813
101.40131273693382
100.89538971849895
100.3930332192203
99.8936472827522
99.39646849285639
98.90051952984366
98.40455433173318
97.90705932962346
97.40661837584862
96.90282934983567
96.27639974882234
95.65075130335211
95.0259039131767
94.40166328133397
93.7775547198748
93.1527542902701
92.5259524155242
91.89527939314692
91.25843438884844
79.47405671189456
75.8148231768978
74.63406780009912
74.25564955557495
74.12534143909053
74.05209865745726
73.92942640755182
73.57909633079062
72.46246692187738
72.40249667960285
72.34333420008477
72.28492998702566
72.22726388359474
72.17034958989055
72.11422432861659
72.05892643579784
72.00448691771935
71.95092525172085
103.49405952342413
102.97027332562078
102.45134499058146
101.9371218082821
101.42736086313138
100.921730662956
100.41980074576972
99.92102306472889
99.4247076889693
98.92999547995127
98.43583869140694
97.94105452850644
97.44462862366747
96.94622997571065
96.32717988911669
95.7089035935866
95.09134759463873
94.47431400225524
93.85739868131635
93.23989959907483
92.62063339503902
91.99715855565493
91.36586158013567
79.36103607411728
75.86671336691784
74.68633181020033
74.3197416127611
74.19068469637435
74.11948333329971
73.99699106255453
73.6625639495122
72.52321072075289
72.46289109657961
72.40347802546675
72.34483823651685
72.28689593478303
72.22970617378004
72.17333133531906
72.11782723963952
72.06323597742306
72.0095831067123
103.51984611141744
102.99610076944211
102.4772593674814
101.963186371604
101.45366135762494
100.94838013545176
100.44694811408662
99.94886837250169
99.45352816061425
98.96018997709685
98.46800267219699
97.97607936310963
97.48371443151919
96.9906341810036
96.37891119953413
95.76804061967268
95.15795608040504
94.5485102993701
93.93944053254845
93.33031658254787
92.72041083219169
92.10856097560048
91.4874017998175
79.2144699321664
75.92136873574233
74.73704889016153
74.38560972094581
74.25749676856665
74.1889248541719
74.06620288702305
73.7511057154813
72.58458730646434
72.52402662750457
72.4646869017679
72.40577429036885
72.34749165079954
72.28995775409822
72.23327404192372
72.17751922407018
72.1227486756438
72.06899484142527
103.54577641907767
103.02207842258305
102.50334244562308
101.98944897934463
101.48019991685847
100.9753193144767
100.47445008869228
99.9771483349388
99.482879926043
98.99102849942354
98.50093200924022
98.01197082481568
97.52370017150311
97.03591730502056
96.43152834672068
95.82811918895032
95.22564360099994
94.62403529342457
94.02321316512358
93.42310420042548
92.82370082989054
92.22518210969115
77.2546819548307
77.2546819548307
77.2546819548307
77.2546819548307
77.2546819548307
77.2546819548307
77.2546819548307
77.2546819548307
77.2546819548307
77.2546819548307
72.58673610162623
72.52711366781352
72.46779590816449
72.40904797346025
72.35106605604545
72.29399304908712
72.23793067174658
72.18294688709932
72.12908039498896
104.05603202742437
103.53382093211606
103.01876880431489
102.51094704436102
102.01047731608519
101.51754319705088
101.03240887617154
100.55544615134013
100.08717104009709
99.62829101026838
99.17976243870997
98.7428567089115
98.3192415062641
97.91111331263478
97.41727672935433
96.92735484735869
96.4419406329076
95.96166466897643
95.48720193406346
95.01927459027749
94.55864623816912
94.10609947573299
77.2546819548307
77.2546819548307
77.2546819548307
77.2546819548307
77.2546819548307
77.2546819548307
77.2546819548307
77.2546819548307
77.2546819548307
77.2546819548307
73.781259999721
73.69075111620447
73.60567062791861
73.52573897776779
73.45073387441253
73.38048215122807
73.31485349889746
73.25375624513649
73.19713460814164
104.5239151675937
104.00269890396643
103.48985372328286
102.98542917733432
102.48950256086964
102.00217711453158
101.52357826440007
101.05384674465823
100.59312692297047
100.14154802111754
99.69919533865554
99.26606765713906
98.8420131057214
98.4266248921468
97.9173468374582
97.40989030828764
96.90405442196015
96.3996124211384
95.89630444550058
95.39383075220789
94.8918464990917
94.38996023111568
77.2546819548307
77.2546819548307
77.2546819548307
77.2546819548307
77.2546819548307
77.2546819548307
77.2546819548307
77.2546819548307
77.2546819548307
77.2546819548307
74.10743864484681
74.03774676618701
73.96972102206608
73.9035094606792
73.83922845131654
73.77696726460837
73.7167915992751
73.65874608360062
73.60285595827416
104.89472745339515
104.37378699856829
103.86114415243303
103.35680670853091
102.8607819757323
102.37307521728461
101.89368769712078
101.422614613675
100.95984343668043
100.50535352328346
100.05911839153809
99.62111284860705
99.19132915057035
98.76981095688753
98.25307923125548
97.73845609772069
97.22598927883547
96.71573679607263
96.2077706108184
95.70218046388574
95.19907769334955
94.69859852845272
77.2546819548307
77.2546819548307
77.2546819548307
77.2546819548307
77.2546819548307
77.2546819548307
77.2546819548307
77.2546819548307
77.2546819548307
77.2546819548307
74.22765305411262
74.15761448295383
74.08969192039724
74.02383730776144
73.96001375967221
73.89819337731676
73.83835557700496
73.78048588948036
73.72457514795244
105.16397205894121
104.64309842860261
104.13021041129089
103.62531093377385
103.12840060025822
102.63947787470268
102.15853936877166
101.68558024877294
101.22059472544139
100.76357648682112
100.31451875131955
99.87341327250478
99.44024682473626
99.01499189264173
98.49329464590552
97.97358367658347
97.45584267118164
96.94005166361752
96.426185593912
95.91421269040825
95.40409269753408
94.89577504483496
77.2546819548307
77.2546819548307
77.2546819548307
77.2546819548307
77.2546819548307
77.2546819548307
77.2546819548307
77.2546819548307
77.2546819548307
77.2546819548307
74.26415460614176
74.19567683758945
74.12896973959015
74.06404878538022
74.00092512708625
73.93960648876605
73.88009784041755
73.8224018808228
73.76651936268425
105.34475486585595
104.82391528247001
104.31083147184836
103.80550669248912
103.307942102644
102.81813673185627
102.33608742192902
101.86178871905938
101.39523270398378
100.9364087667684
100.4853033795394
100.0419000274163
99.6061797292787
99.1781232223372
98.65279867847177
98.12944752216038
97.6080695569831
97.08866567142475
96.57123834917483
96.05579227008403
95.54233501075076
95.03087783588192
77.2546819548307
77.2546819548307
77.2546819548307
77.2546819548307
77.2546819548307
77.2546819548307
77.2546819548307
77.2546819548307
77.2546819548307
77.2546819548307
74.2766455070455
74.20828155079839
74.14171515773376
74.0769401249373
74.01395154730093
73.95274547811023
73.89331867653644
73.83566842823129
73.77979242551423
105.44863862652133
104.92781721913977
104.41461663416993
103.90904004757192
103.41108856497769
102.920761220775
102.43805498390341
101.96296477794951
101.49548352479617
101.03560222000323
100.58331003991566
100.13859445277508
99.70144122092921
99.2718339573345
98.74450382120558
98.2191298258135
97.6957084973883
97.1742359536528
96.65470772390695
96.13711852717287
95.62146199957043
95.10773036592467
77.2546819548307
77.2546819548307
77.2546819548307
77.2546819548307
77.2546819548307
77.2546819548307
77.2546819548307
77.2546819548307
77.2546819548307
77.2546819548307
74.2804821906259
74.21224765464157
74.14578075077202
74.08108152164108
74.01814949199857
73.95698379842588
73.89758328409245
73.83994656518385
73.78407207475237
105.48251063833428
104.96169495176524
104.44845570208486
103.94279612196554
103.44471744398057
102.95421890837854
102.4712977721755
101.99594931585868
101.52816684209407
101.06794165941385
100.61526304515627
100.17011819294439
99.73249219269472
99.30236821543387
98.77436754374166
98.24831845514466
97.72421853746603
97.20206552443041
96.6818573989252
96.1635925240813
95.64726980945619
95.13288891837388
77.2546819548307
77.2546819548307
77.2546819548307
77.2546819548307
77.2546819548307
77.2546819548307
77.2546819548307
77.2546819548307
77.2546819548307
77.2546819548307
74.28138074495124
74.21315446105054
74.1466991840373
74.08201251631958
74.01909229355614
73.9579365059348
73.8985432413793
73.84091064613695
73.78503689900467
105.44863862652193
104.92781721914037
104.4146166341705
103.90904004757246
103.41108856497816
102.9207612207754
102.43805498390383
101.96296477794995
101.49548352479665
101.03560222000374
100.58331003991617
100.13859445277562
99.70144122092977
99.27183395733503
98.74450382120615
98.21912982581402
97.69570849738881
97.17423595365325
96.6547077239074
96.13711852717333
95.62146199957088
95.10773036592519
77.2546819548307
77.2546819548307
77.2546819548307
77.2546819548307
77.2546819548307
77.2546819548307
77.2546819548307
77.2546819548307
77.2546819548307
77.2546819548307
74.28048219062656
74.21224765464227
74.14578075077272
74.08108152164178
74.0181494919993
73.95698379842663
73.8975832840932
73.83994656518458
73.7840720747531
105.34475486585686
104.82391528247095
104.3108314718493
103.80550669249006
103.30794210264493
102.81813673185718
102.33608742192986
101.86178871906019
101.39523270398456
100.93640876676915
100.48530337954016
100.04190002741709
99.60617972927948
99.17812322233803
98.65279867847259
98.12944752216117
97.60806955698392
97.08866567142557
96.57123834917564
96.05579227008486
95.5423350107516
95.03087783588273
77.2546819548307
77.2546819548307
77.2546819548307
77.2546819548307
77.2546819548307
77.2546819548307
77.2546819548307
77.2546819548307
77.2546819548307
77.2546819548307
74.2766455070472
74.20828155080011
74.14171515773553
74.07694012493913
74.01395154730275
73.95274547811204
73.89331867653826
73.83566842823313
73.77979242551608
105.16397205894188
104.64309842860322
104.13021041129147
103.62531093377439
103.12840060025874
102.63947787470319
102.15853936877214
101.68558024877338
101.2205947254418
100.76357648682155
100.31451875132005
99.87341327250529
99.44024682473685
99.01499189264231
98.49329464590616
97.97358367658413
97.45584267118227
96.94005166361809
96.42618559391246
95.91421269040863
95.40409269753441
94.89577504483525
77.2546819548307
77.2546819548307
77.2546819548307
77.2546819548307
77.2546819548307
77.2546819548307
77.2546819548307
77.2546819548307
77.2546819548307
77.2546819548307
74.26415460614615
74.19567683759396
74.12896973959474
74.06404878538483
74.00092512709085
73.9396064887706
73.88009784042198
73.8224018808271
73.76651936268853
104.89472745339563
104.3737869985688
103.86114415243358
103.35680670853152
102.86078197573289
102.37307521728519
101.89368769712136
101.42261461367558
100.95984343668106
100.50535352328407
100.05911839153868
99.62111284860758
99.19132915057082
98.76981095688801
98.25307923125597
97.73845609772107
97.22598927883588
96.7157367960731
96.20777061081898
95.70218046388639
95.19907769335023
94.69859852845337
77.2546819548307
77.2546819548307
77.2546819548307
77.2546819548307
77.2546819548307
77.2546819548307
77.2546819548307
77.2546819548307
77.2546819548307
77.2546819548307
74.22765305411613
74.1576144829574
74.08969192040087
74.02383730776513
73.96001375967597
73.89819337732057
73.83835557700883
73.7804858894843
73.72457514795637
104.52391516759339
104.00269890396613
103.48985372328254
102.98542917733394
102.48950256086925
102.00217711453124
101.52357826439973
101.05384674465789
100.59312692297013
100.14154802111726
99.69919533865537
99.26606765713896
98.84201310572134
98.42662489214675
97.91734683745814
97.40989030828763
96.90405442196014
96.39961242113841
95.89630444550056
95.39383075220785
94.8918464990916
94.38996023111551
77.2546819548307
77.2546819548307
77.2546819548307
77.2546819548307
77.2546819548307
77.2546819548307
77.2546819548307
77.2546819548307
77.2546819548307
77.2546819548307
74.10743864484944
74.03774676618971
73.9697210220688
73.9035094606819
73.83922845131924
73.77696726461109
73.71679159927777
73.65874608360325
73.6028559582768
104.05603202742363
103.53382093211533
103.01876880431413
102.5109470443603
102.01047731608445
101.51754319705019
101.0324088761709
100.55544615133951
100.08717104009651
99.62829101026787
99.17976243870956
98.74285670891119
98.31924150626382
97.91111331263455
97.41727672935414
96.92735484735852
96.44194063290746
95.96166466897625
95.4872019340633
95.01927459027728
94.5586462381689
94.10609947573273
77.2546819548307
77.2546819548307
77.2546819548307
77.2546819548307
77.2546819548307
77.2546819548307
77.2546819548307
77.2546819548307
77.2546819548307
77.2546819548307
73.78125999972279
73.6907511162063
73.60567062792052
73.52573897776973
73.4507338744145
73.38048215123003
73.31485349889945
73.2537562451385
73.19713460814364
103.54577641907665
103.02207842258208
102.50334244562224
101.9894489793439
101.48019991685794
100.97531931447625
100.47445008869191
99.97714833493848
99.48287992604271
98.99102849942317
98.50093200923982
98.01197082481525
97.52370017150281
97.03591730502033
96.4315283467206
95.82811918895041
95.22564360100016
94.62403529342497
94.02321316512406
93.42310420042611
92.82370082989122
92.22518210969187
77.2546819548307
77.2546819548307
77.2546819548307
77.2546819548307
77.2546819548307
77.2546819548307
77.2546819548307
77.2546819548307
77.2546819548307
77.2546819548307
72.58673610162826
72.52711366781558
72.46779590816658
72.40904797346236
72.35106605604764
72.29399304908934
72.23793067174876
72.18294688710144
72.1290803949911
103.51984611141636
102.99610076944101
102.47725936748064
101.9631863716033
101.45366135762433
100.94838013545132
100.44694811408618
99.94886837250141
99.45352816061394
98.96018997709655
98.46800267219653
97.97607936310916
97.48371443151889
96.99063418100339
96.37891119953402
95.76804061967275
95.15795608040527
94.54851029937048
93.93944053254896
93.33031658254845
92.72041083219231
92.10856097560122
91.48740179981829
79.21446993216831
75.9213687357422
74.73704889016138
74.38560972094707
74.25749676856711
74.18892485417261
74.06620288702386
73.75110571548001
72.58458730646629
72.5240266275066
72.46468690177
72.40577429037093
72.34749165080164
72.28995775410034
72.23327404192584
72.17751922407226
72.12274867564591
72.06899484142741
103.49405952342295
102.9702733256197
102.4513449905807
101.9371218082815
101.42736086313086
100.92173066295555
100.41980074576921
99.92102306472857
99.42470768896905
98.929995479951
98.43583869140649
97.94105452850599
97.44462862366713
96.94622997571042
96.32717988911661
95.70890359358665
95.09134759463889
94.47431400225553
93.85739868131682
93.2398995990754
92.62063339503973
91.99715855565569
91.36586158013641
79.36103607411935
75.86671336691775
74.68633181020029
74.31974161276244
74.19068469637476
74.1194833333005
73.99699106255538
73.66256394951094
72.52321072075489
72.46289109658164
72.40347802546879
72.34483823651888
72.28689593478506
72.22970617378209
72.1733313353211
72.11782723964153
72.06323597742511
72.00958310671432
103.46842114902637
102.94460160600738
102.42560722680659
101.9112661357974
101.40131273693338
100.89538971849848
100.39303321921975
99.89364728275173
99.3964684928561
98.90051952984332
98.40455433173281
97.90705932962307
97.40661837584823
96.90282934983546
96.27639974882221
95.65075130335214
95.02590391317685
94.40166328133425
93.7775547198753
93.15275429027065
92.52595241552486
91.89527939314772
91.25843438884931
79.47405671189668
75.81482317689778
74.63406780009925
74.25564955557624
74.125341439091
74.05209865745807
73.92942640755277
73.57909633078935
72.46246692187941
72.40249667960488
72.34333420008674
72.28492998702762
72.22726388359673
72.17034958989252
72.11422432861856
72.05892643579982
72.00448691772131
71.95092525172284
103.44293345097518
102.91908937019359
102.40005256460009
101.8856287809016