# vtk DataFile Version 2.0
Niestacjonarne zagadnienie cieplne - ogrzewanie wody w garnku stalowym
ASCII
DATASET UNSTRUCTURED_GRID
POINTS 1353 float
0.0 0.0 0.0
0.0 0.0015384615384615385 0.0
0.0 0.003076923076923077 0.0
0.0 0.004615384615384615 0.0
0.0 0.006153846153846154 0.0
0.0 0.007692307692307693 0.0
0.0 0.00923076923076923 0.0
0.0 0.010769230769230769 0.0
0.0 0.012307692307692308 0.0
0.0 0.013846153846153847 0.0
0.0 0.015384615384615385 0.0
0.0 0.016923076923076923 0.0
0.0 0.01846153846153846 0.0
0.0 0.02 0.0
0.0 0.020555555555555556 0.0
0.0 0.021111111111111112 0.0
0.0 0.021666666666666667 0.0
0.0 0.022222222222222223 0.0
0.0 0.02277777777777778 0.0
0.0 0.023333333333333334 0.0
0.0 0.02388888888888889 0.0
0.0 0.024444444444444446 0.0
0.0 0.025 0.0
0.0 0.036111111111111115 0.0
0.0 0.04722222222222222 0.0
0.0 0.058333333333333334 0.0
0.0 0.06944444444444445 0.0
0.0 0.08055555555555556 0.0
0.0 0.09166666666666667 0.0
0.0 0.10277777777777777 0.0
0.0 0.1138888888888889 0.0
0.0 0.125 0.0
0.0 0.12555555555555556 0.0
0.0 0.12611111111111112 0.0
0.0 0.12666666666666668 0.0
0.0 0.1272222222222222 0.0
0.0 0.12777777777777777 0.0
0.0 0.12833333333333333 0.0
0.0 0.1288888888888889 0.0
0.0 0.12944444444444445 0.0
0.0 0.13 0.0
5.555555555555556E-4 0.0 0.0
5.555555555555556E-4 0.0015384615384615385 0.0
5.555555555555556E-4 0.003076923076923077 0.0
5.555555555555556E-4 0.004615384615384615 0.0
5.555555555555556E-4 0.006153846153846154 0.0
5.555555555555556E-4 0.007692307692307693 0.0
5.555555555555556E-4 0.00923076923076923 0.0
5.555555555555556E-4 0.010769230769230769 0.0
5.555555555555556E-4 0.012307692307692308 0.0
5.555555555555556E-4 0.013846153846153847 0.0
5.555555555555556E-4 0.015384615384615385 0.0
5.555555555555556E-4 0.016923076923076923 0.0
5.555555555555556E-4 0.01846153846153846 0.0
5.555555555555556E-4 0.02 0.0
5.555555555555556E-4 0.020555555555555556 0.0
5.555555555555556E-4 0.021111111111111112 0.0
5.555555555555556E-4 0.021666666666666667 0.0
5.555555555555556E-4 0.022222222222222223 0.0
5.555555555555556E-4 0.02277777777777778 0.0
5.555555555555556E-4 0.023333333333333334 0.0
5.555555555555556E-4 0.02388888888888889 0.0
5.555555555555556E-4 0.024444444444444446 0.0
5.555555555555556E-4 0.025 0.0
5.555555555555556E-4 0.036111111111111115 0.0
5.555555555555556E-4 0.04722222222222222 0.0
5.555555555555556E-4 0.058333333333333334 0.0
5.555555555555556E-4 0.06944444444444445 0.0
5.555555555555556E-4 0.08055555555555556 0.0
5.555555555555556E-4 0.09166666666666667 0.0
5.555555555555556E-4 0.10277777777777777 0.0
5.555555555555556E-4 0.1138888888888889 0.0
5.555555555555556E-4 0.125 0.0
5.555555555555556E-4 0.12555555555555556 0.0
5.555555555555556E-4 0.12611111111111112 0.0
5.555555555555556E-4 0.12666666666666668 0.0
5.555555555555556E-4 0.1272222222222222 0.0
5.555555555555556E-4 0.12777777777777777 0.0
5.555555555555556E-4 0.12833333333333333 0.0
5.555555555555556E-4 0.1288888888888889 0.0
5.555555555555556E-4 0.12944444444444445 0.0
5.555555555555556E-4 0.13 0.0
0.0011111111111111111 0.0 0.0
0.0011111111111111111 0.0015384615384615385 0.0
0.0011111111111111111 0.003076923076923077 0.0
0.0011111111111111111 0.004615384615384615 0.0
0.0011111111111111111 0.006153846153846154 0.0
0.0011111111111111111 0.007692307692307693 0.0
0.0011111111111111111 0.00923076923076923 0.0
0.0011111111111111111 0.010769230769230769 0.0
0.0011111111111111111 0.012307692307692308 0.0
0.0011111111111111111 0.013846153846153847 0.0
0.0011111111111111111 0.015384615384615385 0.0
0.0011111111111111111 0.016923076923076923 0.0
0.0011111111111111111 0.01846153846153846 0.0
0.0011111111111111111 0.02 0.0
0.0011111111111111111 0.020555555555555556 0.0
0.0011111111111111111 0.021111111111111112 0.0
0.0011111111111111111 0.021666666666666667 0.0
0.0011111111111111111 0.022222222222222223 0.0
0.0011111111111111111 0.02277777777777778 0.0
0.0011111111111111111 0.023333333333333334 0.0
0.0011111111111111111 0.02388888888888889 0.0
0.0011111111111111111 0.024444444444444446 0.0
0.0011111111111111111 0.025 0.0
0.0011111111111111111 0.036111111111111115 0.0
0.0011111111111111111 0.04722222222222222 0.0
0.0011111111111111111 0.058333333333333334 0.0
0.0011111111111111111 0.06944444444444445 0.0
0.0011111111111111111 0.08055555555555556 0.0
0.0011111111111111111 0.09166666666666667 0.0
0.0011111111111111111 0.10277777777777777 0.0
0.0011111111111111111 0.1138888888888889 0.0
0.0011111111111111111 0.125 0.0
0.0011111111111111111 0.12555555555555556 0.0
0.0011111111111111111 0.12611111111111112 0.0
0.0011111111111111111 0.12666666666666668 0.0
0.0011111111111111111 0.1272222222222222 0.0
0.0011111111111111111 0.12777777777777777 0.0
0.0011111111111111111 0.12833333333333333 0.0
0.0011111111111111111 0.1288888888888889 0.0
0.0011111111111111111 0.12944444444444445 0.0
0.0011111111111111111 0.13 0.0
0.0016666666666666666 0.0 0.0
0.0016666666666666666 0.0015384615384615385 0.0
0.0016666666666666666 0.003076923076923077 0.0
0.0016666666666666666 0.004615384615384615 0.0
0.0016666666666666666 0.006153846153846154 0.0
0.0016666666666666666 0.007692307692307693 0.0
0.0016666666666666666 0.00923076923076923 0.0
0.0016666666666666666 0.010769230769230769 0.0
0.0016666666666666666 0.012307692307692308 0.0
0.0016666666666666666 0.013846153846153847 0.0
0.0016666666666666666 0.015384615384615385 0.0
0.0016666666666666666 0.016923076923076923 0.0
0.0016666666666666666 0.01846153846153846 0.0
0.0016666666666666666 0.02 0.0
0.0016666666666666666 0.020555555555555556 0.0
0.0016666666666666666 0.021111111111111112 0.0
0.0016666666666666666 0.021666666666666667 0.0
0.0016666666666666666 0.022222222222222223 0.0
0.0016666666666666666 0.02277777777777778 0.0
0.0016666666666666666 0.023333333333333334 0.0
0.0016666666666666666 0.02388888888888889 0.0
0.0016666666666666666 0.024444444444444446 0.0
0.0016666666666666666 0.025 0.0
0.0016666666666666666 0.036111111111111115 0.0
0.0016666666666666666 0.04722222222222222 0.0
0.0016666666666666666 0.058333333333333334 0.0
0.0016666666666666666 0.06944444444444445 0.0
0.0016666666666666666 0.08055555555555556 0.0
0.0016666666666666666 0.09166666666666667 0.0
0.0016666666666666666 0.10277777777777777 0.0
0.0016666666666666666 0.1138888888888889 0.0
0.0016666666666666666 0.125 0.0
0.0016666666666666666 0.12555555555555556 0.0
0.0016666666666666666 0.12611111111111112 0.0
0.0016666666666666666 0.12666666666666668 0.0
0.0016666666666666666 0.1272222222222222 0.0
0.0016666666666666666 0.12777777777777777 0.0
0.0016666666666666666 0.12833333333333333 0.0
0.0016666666666666666 0.1288888888888889 0.0
0.0016666666666666666 0.12944444444444445 0.0
0.0016666666666666666 0.13 0.0
0.0022222222222222222 0.0 0.0
0.0022222222222222222 0.0015384615384615385 0.0
0.0022222222222222222 0.003076923076923077 0.0
0.0022222222222222222 0.004615384615384615 0.0
0.0022222222222222222 0.006153846153846154 0.0
0.0022222222222222222 0.007692307692307693 0.0
0.0022222222222222222 0.00923076923076923 0.0
0.0022222222222222222 0.010769230769230769 0.0
0.0022222222222222222 0.012307692307692308 0.0
0.0022222222222222222 0.013846153846153847 0.0
0.0022222222222222222 0.015384615384615385 0.0
0.0022222222222222222 0.016923076923076923 0.0
0.0022222222222222222 0.01846153846153846 0.0
0.0022222222222222222 0.02 0.0
0.0022222222222222222 0.020555555555555556 0.0
0.0022222222222222222 0.021111111111111112 0.0
0.0022222222222222222 0.021666666666666667 0.0
0.0022222222222222222 0.022222222222222223 0.0
0.0022222222222222222 0.02277777777777778 0.0
0.0022222222222222222 0.023333333333333334 0.0
0.0022222222222222222 0.02388888888888889 0.0
0.0022222222222222222 0.024444444444444446 0.0
0.0022222222222222222 0.025 0.0
0.0022222222222222222 0.036111111111111115 0.0
0.0022222222222222222 0.04722222222222222 0.0
0.0022222222222222222 0.058333333333333334 0.0
0.0022222222222222222 0.06944444444444445 0.0
0.0022222222222222222 0.08055555555555556 0.0
0.0022222222222222222 0.09166666666666667 0.0
0.0022222222222222222 0.10277777777777777 0.0
0.0022222222222222222 0.1138888888888889 0.0
0.0022222222222222222 0.125 0.0
0.0022222222222222222 0.12555555555555556 0.0
0.0022222222222222222 0.12611111111111112 0.0
0.0022222222222222222 0.12666666666666668 0.0
0.0022222222222222222 0.1272222222222222 0.0
0.0022222222222222222 0.12777777777777777 0.0
0.0022222222222222222 0.12833333333333333 0.0
0.0022222222222222222 0.1288888888888889 0.0
0.0022222222222222222 0.12944444444444445 0.0
0.0022222222222222222 0.13 0.0
0.002777777777777778 0.0 0.0
0.002777777777777778 0.0015384615384615385 0.0
0.002777777777777778 0.003076923076923077 0.0
0.002777777777777778 0.004615384615384615 0.0
0.002777777777777778 0.006153846153846154 0.0
0.002777777777777778 0.007692307692307693 0.0
0.002777777777777778 0.00923076923076923 0.0
0.002777777777777778 0.010769230769230769 0.0
0.002777777777777778 0.012307692307692308 0.0
0.002777777777777778 0.013846153846153847 0.0
0.002777777777777778 0.015384615384615385 0.0
0.002777777777777778 0.016923076923076923 0.0
0.002777777777777778 0.01846153846153846 0.0
0.002777777777777778 0.02 0.0
0.002777777777777778 0.020555555555555556 0.0
0.002777777777777778 0.021111111111111112 0.0
0.002777777777777778 0.021666666666666667 0.0
0.002777777777777778 0.022222222222222223 0.0
0.002777777777777778 0.02277777777777778 0.0
0.002777777777777778 0.023333333333333334 0.0
0.002777777777777778 0.02388888888888889 0.0
0.002777777777777778 0.024444444444444446 0.0
0.002777777777777778 0.025 0.0
0.002777777777777778 0.036111111111111115 0.0
0.002777777777777778 0.04722222222222222 0.0
0.002777777777777778 0.058333333333333334 0.0
0.002777777777777778 0.06944444444444445 0.0
0.002777777777777778 0.08055555555555556 0.0
0.002777777777777778 0.09166666666666667 0.0
0.002777777777777778 0.10277777777777777 0.0
0.002777777777777778 0.1138888888888889 0.0
0.002777777777777778 0.125 0.0
0.002777777777777778 0.12555555555555556 0.0
0.002777777777777778 0.12611111111111112 0.0
[...]
POINT_DATA 1353
SCALARS Temperatura float 1
LOOKUP_TABLE default
81.64539676416348
81.10434015169683
80.56918663625906
80.03957087280948
79.51516678547273
78.9955807090712
78.48031418268819
77.96871862249645
77.45993590552783
76.95278933028924
76.44566470847013
75.93590874139196
75.42028875838358
74.88214165442105
74.18978099219278
73.52740220042632
72.87437056885416
72.22697038305184
71.58284038514627
70.94042322551844
70.2985832679956
69.6565082932012
69.01369429778846
57.762649868781935
53.67678864875877
52.47550078857637
52.069992084159956
51.9379684466613
51.872488097909134
51.78501545681244
51.52096901534293
50.812411181365135
50.77461189796364
50.73737596218522
50.70078477357466
50.66490837945942
50.629805692758296
50.59552467790239
50.562102451997134
50.529565302462906
50.49792865590634
81.66377646002077
81.12260586914101
80.58731114206822
80.05755925413622
79.53302450255735
79.01331610177914
78.49793793139547
77.98624566510695
77.47738426697482
76.97019890149207
76.46303920018471
75.9535551359367
75.43738379925944
74.90573624570435
74.23909281324933
73.5788110131472
72.92687336049865
72.27984980560356
71.63580340825425
70.99328503321239
70.35119477099875
69.70872033109379
69.06534232607684
57.789166171468025
53.71035405603672
52.50876810294384
52.10354522391765
51.9715740539124
51.90612684073264
51.81863687513097
51.55507654577798
50.844673076730736
50.806787722859575
50.76947207417386
50.732807516054656
50.696864038118676
50.66170051137967
50.62736489964976
50.593894355999986
50.56131521825841
50.52964295276582
81.68225391053821
81.1410276003385
80.60563227996451
80.07578583481198
79.55117119284408
79.03140465087516
78.51599811870803
78.0043181614092
77.4955284359045
76.98849934792453
76.48165300617705
75.97272106618288
75.457743519578
74.93262574081271
74.27732538478038
73.62501519450579
72.97672104127234
72.33193847394871
71.6893715499241
71.04783848431404
70.40631491003978
69.76397425861495
69.12024024003995
57.79131355682066
53.74226502792604
52.542135639744664
52.1386309703522
52.00707711421796
51.94186763791177
51.85449704687178
51.59295157049357
50.878442884872015
50.84037656862026
50.80289800001356
50.76608826395106
50.73001697077555
50.69474272150958
50.66031339017963
50.626766189521575
50.59412758335595
50.5624131447625
81.70085856608515
81.15960647099556
80.62414938635273
80.09424895912274
79.56960430034057
79.04984287147687
78.53448967846356
78.02292967143418
77.51435516663713
77.00768384908243
76.50143470785243
75.99348585712737
75.48073438228192
74.96113487745897
74.31390298528328
73.6683841815349
73.02510907317303
72.38388427389292
71.74399148817798
71.1044771441349
70.46436505430952
69.82275967200987
69.1789523804201
57.76857964753307
53.772776703288976
52.57553483234497
52.17527573785192
52.044472623558704
51.97971893816283
51.892581338389576
51.63462796065257
50.913704396123265
50.875362279233386
50.837637984373394
50.80061170888103
50.764352160380135
50.728917379026775
50.69435511094117
50.66070275573245
50.627987073384624
50.596223869307934
81.71960579743593
81.1783462453009
80.64286099286626
80.11294578661914
79.5883195580054
79.06862486440379
78.55340447835889
78.04206836455181
77.53384726954876
77.02772393173122
76.52233148351357
76.01578717931692
75.50575669285202
74.99103281291299
74.3505588700718
73.71125039559598
73.07329308351814
72.43648773716454
71.80026302073382
71.16377222575545
70.52600136435444
69.88588343462817
69.24244704745036
57.72010921513787
53.802325710167864
52.60884652892451
52.213524441193314
52.083750150227985
52.01969390000541
51.93286321425979
51.68016037094874
50.950428793829865
50.9117165792531
50.873664845195705
50.83635170220123
50.79984404686663
50.76419899143765
50.72946430230599
50.69567793685601
50.66286730764673
50.63104866745721
81.73850389722982
81.19724978891726
80.66176511290034
80.13187220916387
79.6073110131872
79.0877424570577
78.57273124420688
78.06171814289544
77.55398111952873
77.0485806878729
76.54428353354659
76.03948415309351
75.53242678031667
75.02224011421954
74.3879821109932
73.75465045132826
73.12222893017685
72.49045581372157
71.85878222683093
71.22635926032707
70.59204439790912
69.95445615777028
69.31214822738461
57.644675484465246
53.831546180187544
52.64189351465879
52.253443509640555
52.124892584137044
52.06181118036655
51.975303292082785
51.72962540670818
50.988573417386746
50.94939852333054
50.910940099961074
50.873271857376025
50.83645713349595
50.80055187401934
50.76560452767259
50.73165456958126
50.698730646465485
50.66684975956093
81.75755688112669
81.21631819728321
80.68085892596069
80.15102287650171
79.62657106674722
79.10718530803075
78.59245578465412
78.08185898484572
77.57472716554126
77.07020811245567
76.56721640993669
76.06442103855667
75.56048590683567
75.0546877304192
74.42645896920332
73.79908778105809
73.17245372681919
72.54626278336066
71.91998549680393
71.29278224254256
70.66335424919187
70.0298578621226
69.39002484666022
57.54063471603948
53.86129398227413
52.674429339819454
52.29512538817961
52.167874266418515
52.106096101492795
52.01984796613015
51.78312333474183
51.028079847924886
50.988353453624676
50.949414673606775
50.9113269837565
50.874147465657295
50.83793047423028
50.80272856607032
50.76858415651233
50.735527839716006
50.70357767942452
81.77676577277899
81.23555069391443
80.70013851807849
80.17039119696588
79.64609053563191
79.12694104057901
78.61256125332497
78.1024673144571
77.59605100585705
77.09255396850521
76.59104537470046
76.09044852745537
75.58974049124801
75.08829083451567
74.46608008860333
73.84476606337184
73.22419575782715
72.6040965296882
71.98401857213332
71.36324188435434
70.7405878073489
70.1136210131672
69.47874356115669
57.4058561140353
53.89268180148432
52.706122514202285
52.33869488013036
52.2126583571003
52.15258226791751
52.06642753968921
51.84078042152319
51.06887114436139
51.02851098887129
50.98902820093533
50.95047089091914
50.91286347456112
50.87627923228487
50.84077792573643
50.806406321454894
50.77319749145546
50.74117074841112
81.79612929021762
81.25494474167182
80.71959875277064
80.18996933454663
79.66585873155557
79.14699540177185
78.63302842630893
78.12351648788754
77.61791433559398
77.11556101616388
76.61568053472475
76.11742772004942
75.6200297607679
75.12294592148696
74.50682004894821
73.89169990377606
73.27744957178574
72.66386783355448
72.05065742933029
71.43737414116431
70.82329576095891
70.20729682108477
69.58192963079425
57.23761355674663
53.92712941427109
52.736534565716
52.38431787325446
52.259193248336544
52.201313660651415
52.11495406612736
51.90275095921805
51.11085191315114
51.06971301028156
51.029770595920304
50.99065436497335
50.95254510316163
50.915531327985335
50.879681803226376
50.84504796764382
50.81166535376358
50.77955441648567
81.81564427275198
81.27449620464158
80.73923323875773
80.20974822282848
79.6858635525419
79.1673324383611
78.65383600166474
78.14497732101573
77.64027583617475
77.13916857559008
76.6410302743752
76.145228521207
75.65120883511219
75.15853358219323
74.54858115146428
73.93978246635729
73.33204483839144
72.7252650499727
72.11933789091763
71.51418160791559
70.90979735925693
70.30639174664074
54.59536368028197
54.59536368028197
54.59536368028197
54.59536368028197
54.59536368028197
54.59536368028197
54.59536368028197
54.59536368028197
54.59536368028197
54.59536368028197
51.112355674105935
51.071607018041554
51.03181969808238
50.99311947882184
50.9556062547245
50.91935550816615
50.88442221676363
50.85084354169993
50.81864056504029
82.20639633355493
81.66648812823942
81.13435763634212
80.61006667850748
80.09371953814562
79.58547292694443
79.08555218441118
78.5942748834094
78.11208319447843
77.63958640715475
77.17761436614532
76.72728219495511
76.29007306071435
75.86796709251004
75.35647587867305
74.84892188806512
74.3458438009967
73.84781294565876
73.35543859934499
72.86936934891492
72.39028586007215
71.9188769366708
54.59536368028197
54.59536368028197
54.59536368028197
54.59536368028197
54.59536368028197
54.59536368028197
54.59536368028197
54.59536368028197
54.59536368028197
54.59536368028197
51.92430761566796
51.86095768325057
51.802168898439994
51.74775666340591
51.69757070217158
51.65149214852268
51.60943052942129
51.57132156800941
51.53712568836688
82.57136055739825
82.03230100274521
81.5021099020549
80.98083171969125
80.46853519681778
79.96531192453031
79.47127324349222
78.98654446116781
78.51125488094357
78.0455214921591
77.58942345794927
77.14296343420799
76.70600832753242
76.27819348404724
75.75393823285786
75.2317517105656
74.71145317203717
74.19283888394435
73.67567581398951
73.15969583220671
72.64459158672436
72.13001620412284
54.59536368028197
54.59536368028197
54.59536368028197
54.59536368028197
54.59536368028197
54.59536368028197
54.59536368028197
54.59536368028197
54.59536368028197
54.59536368028197
52.14314872242893
52.09424515892356
52.04730943655153
52.002441248089575
51.9597197086554
51.91920576934514
51.88094429662081
51.84496561057731
51.81128654461973
82.86204911150237
82.32322304478505
81.79324130669808
81.2721123069828
80.75984421154115
80.25644356190602
79.76191354002276
79.27625211477151
78.79945051897326
78.3314928455747
77.87235804996934
77.42202646470332
76.98049472926365
76.54780690552451
76.0176902582419
75.4899121906761
74.96451688714158
74.4415577520933
73.9211006413945
73.40322723998392
72.88803834252175
72.37565652048663
54.59536368028197
54.59536368028197
54.59536368028197
54.59536368028197
54.59536368028197
54.59536368028197
54.59536368028197
54.59536368028197
54.59536368028197
54.59536368028197
52.22405873352735
52.174816234356385
52.1278647765924
52.08317049979154
52.04070696204818
52.00045383138997
51.96239582377647
51.92652192047851
51.8928248311229
83.07305912493347
82.53428696062231
82.0041174978733
81.48255484314541
80.96960121544983
80.46525710768856
79.96952154341345
79.48239244439092
79.00386708055673
78.53394247827495
78.07261548696232
77.61988187002227
77.17573305198204
76.74014758366921
76.20616438060925
75.67441426298498
75.14488318160893
74.61755380389158
74.09240422590851
73.56940653487186
73.04852525455247
72.52971577832332
54.59536368028197
54.59536368028197
54.59536368028197
54.59536368028197
54.59536368028197
54.59536368028197
54.59536368028197
54.59536368028197
54.59536368028197
54.59536368028197
52.24842364059016
52.20025115266364
52.15413185752019
52.110075639013274
52.06808945881318
52.02817792043243
51.99034371196551
51.95458792901304
51.92091029439967
83.21457655501878
82.6758312162188
82.14550901597612
81.62361434608302
81.11014988911879
80.6051165934279
80.1085136205742
79.6203382480687
79.14058571438228
78.66924901131493
78.2063186732796
77.75178271567512
77.3056271237818
76.8678378607463
76.3310022726153
75.79639209223006
75.26400786852344
74.73385112688653
74.20592482690229
73.68023389912656
73.15678586542315
72.63559152957747
54.59536368028197
54.59536368028197
54.59536368028197
54.59536368028197
54.59536368028197
54.59536368028197
54.59536368028197
54.59536368028197
54.59536368028197
54.59536368028197
52.256756548814636
52.208653116160846
52.16262296281179
52.11866100644005
52.076763036968416
52.03692549582408
51.999145307016875
51.96341975548134
51.92974640518033
83.29582250622377
82.75709138343042
82.22667785071131
81.70458621306058
81.19081907538575
80.68537734096822
80.18826021560812
79.69946522443533
79.21898825000957
78.74682359939202
78.28296409994041
77.82740119683912
77.38012494678898
76.94112360267185
76.40272068449579
75.86652964139137
75.33254797253113
74.80077280592009
74.27120073637178
73.7438276264415
73.21864836342216
72.69565656950964
54.59536368028197
54.59536368028197
54.59536368028197
54.59536368028197
54.59536368028197
54.59536368028197
54.59536368028197
54.59536368028197
54.59536368028197
54.59536368028197
52.259301483092806
52.21128566122112
52.16532259265971
52.12141153332142
52.07955137463489
52.03974072950638
52.00197799649226
51.96626140528342
51.93258904693258
83.32230027487466
82.78357360537652
82.25312979264214
81.73097318695373
81.21710649504092
80.7115307865267
80.2142455013075
79.72524845446894
79.2445358335496
78.77210218164046
78.30794036120106
77.85204150426148
77.40439499424052
76.9649886359999
76.42606002560456
75.88933989163641
75.35482669332377
74.82251902009904
74.29241568462591
73.76451584053248
73.23881913086989
72.71532587191105
54.59536368028197
54.59536368028197
54.59536368028197
54.59536368028197
54.59536368028197
54.59536368028197
54.59536368028197
54.59536368028197
54.59536368028197
54.59536368028197
52.25989722416339
52.211886334799104
52.16593066984292
52.12202779078601
52.0801754087274
52.040371331727755
52.0026134261346
51.96689958949132
51.933227732721114
83.29582250622425
82.7570913834309
82.22667785071178
81.70458621306102
81.19081907538613
80.68537734096853
80.18826021560844
79.69946522443566
79.21898825000993
78.7468235993924
78.28296409994081
77.82740119683953
77.3801249467894
76.94112360267225
76.40272068449619
75.86652964139178
75.33254797253154
74.80077280592043
74.27120073637211
73.74382762644183
73.2186483634225
72.69565656951002
54.59536368028197
54.59536368028197
54.59536368028197
54.59536368028197
54.59536368028197
54.59536368028197
54.59536368028197
54.59536368028197
54.59536368028197
54.59536368028197
52.25930148309326
52.21128566122159
52.16532259266019
52.12141153332191
52.079551374635386
52.0397407295069
52.00197799649278
51.96626140528394
51.93258904693308
83.21457655501952
82.67583121621955
82.14550901597687
81.62361434608376
81.11014988911953
80.6051165934286
80.10851362057488
79.62033824806936
79.1405857143829
78.66924901131554
78.20631867328021
77.75178271567574
77.30562712378244
76.867837860747
76.33100227261598
75.7963920922307
75.26400786852408
74.73385112688717
74.20592482690293
73.6802338991272
73.15678586542379
72.63559152957806
54.59536368028197
54.59536368028197
54.59536368028197
54.59536368028197
54.59536368028197
54.59536368028197
54.59536368028197
54.59536368028197
54.59536368028197
54.59536368028197
52.256756548815865
52.20865311616208
52.16262296281305
52.11866100644134
52.07676303696971
52.036925495825365
51.999145307018175
51.96341975548266
51.92974640518166
83.07305912493398
82.5342869606228
82.00411749787375
81.48255484314585
80.96960121545024
80.46525710768894
79.9695215434138
79.48239244439127
79.00386708055707
78.53394247827529
78.0726154869627
77.61988187002268
77.17573305198249
76.74014758366967
76.20616438060974
75.67441426298547
75.14488318160939
74.617553803892
74.09240422590885
73.56940653487214
73.0485252545527
72.52971577832355
54.59536368028197
54.59536368028197
54.59536368028197
54.59536368028197
54.59536368028197
54.59536368028197
54.59536368028197
54.59536368028197
54.59536368028197
54.59536368028197
52.24842364059322
52.20025115266678
52.15413185752339
52.11007563901648
52.068089458816374
52.028177920435574
51.990343711968585
51.95458792901602
51.920910294402624
82.8620491115027
82.3232230447854
81.79324130669846
81.27211230698326
80.7598442115416
80.25644356190647
79.7619135400232
79.27625211477195
78.79945051897374
78.33149284557518
77.8723580499698
77.42202646470376
76.98049472926405
76.54780690552491
76.01769025824231
75.48991219067645
74.96451688714197
74.44155775209373
73.92110064139501
73.40322723998447
72.88803834252232
72.37565652048717
54.59536368028197
54.59536368028197
54.59536368028197
54.59536368028197
54.59536368028197
54.59536368028197
54.59536368028197
54.59536368028197
54.59536368028197
54.59536368028197
52.224058733529795
52.174816234358865
52.12786477659493
52.08317049979413
52.04070696205082
52.00045383139264
51.96239582377919
51.926521920481285
51.8928248311257
82.571360557398
82.03230100274496
81.50210990205461
80.98083171969094
80.46853519681747
79.96531192453007
79.47127324349198
78.98654446116757
78.51125488094333
78.04552149215888
77.58942345794912
77.1429634342079
76.70600832753236
76.2781934840472
75.75393823285783
75.23175171056562
74.71145317203718
74.19283888394438
73.6756758139895
73.15969583220665
72.64459158672427
72.13001620412271
54.59536368028197
54.59536368028197
54.59536368028197
54.59536368028197
54.59536368028197
54.59536368028197
54.59536368028197
54.59536368028197
54.59536368028197
54.59536368028197
52.14314872243075
52.09424515892542
52.0473094365534
52.002441248091436
51.95971970865726
51.919205769346995
51.88094429662264
51.84496561057911
51.81128654462153
82.20639633355438
81.66648812823888
81.13435763634158
80.61006667850695
80.0937195381451
79.58547292694394
79.08555218441073
78.59427488340891
78.11208319447798
77.63958640715438
77.17761436614502
76.7272821949549
76.29007306071415
75.86796709250987
75.35647587867291
74.84892188806496
74.34584380099656
73.84781294565859
73.35543859934484
72.86936934891474
72.39028586007196
71.9188769366706
54.59536368028197
54.59536368028197
54.59536368028197
54.59536368028197
54.59536368028197
54.59536368028197
54.59536368028197
54.59536368028197
54.59536368028197
54.59536368028197
51.92430761566922
51.86095768325185
51.802168898441316
51.747756663407266
51.69757070217295
51.651492148524056
51.609430529422674
51.57132156801082
51.537125688368285
81.81564427275116
81.27449620464077
80.73923323875707
80.20974822282791
79.68586355254148
79.16733243836076
78.65383600166446
78.1449773210155
77.64027583617452
77.13916857558975
76.64103027437486
76.14522852120665
75.65120883511194
75.15853358219302
74.54858115146413
73.9397824663573
73.33204483839151
72.7252650499729
72.11933789091788
71.51418160791589
70.90979735925727
70.30639174664107
54.59536368028197
54.59536368028197
54.59536368028197
54.59536368028197
54.59536368028197
54.59536368028197
54.59536368028197
54.59536368028197
54.59536368028197
54.59536368028197
51.11235567410733
51.07160701804298
51.031819698083844
50.99311947882332
50.95560625472602
50.91935550816769
50.88442221676517
50.850843541701416
50.81864056504178
81.79612929021678
81.25494474167094
80.71959875276997
80.18996933454608
79.66585873155512
79.14699540177155
78.63302842630861
78.12351648788729
77.6179143355937
77.11556101616357
76.61568053472438
76.11742772004902
75.6200297607676
75.1229459214868
74.50682004894807
73.89169990377607
73.27744957178585
72.66386783355465
72.05065742933053
71.43737414116463
70.82329576095921
70.20729682108511
69.58192963079455
57.23761355674812
53.92712941427098
52.73653456571593
52.38431787325553
52.259193248336864
52.201313660651905
52.114954066127964
51.902750959217286
51.11085191315248
51.069713010282925
51.0297705959217
50.990654364974745
50.95254510316308
50.91553132798681
50.87968180322786
50.84504796764528
50.81166535376501
50.779554416487095
81.77676577277816
81.23555069391358
80.70013851807781
80.17039119696531
79.64609053563152
79.1269410405787
78.61256125332467
78.10246731445683
77.5960510058568
77.09255396850487
76.59104537470009
76.09044852745501
75.58974049124778
75.08829083451552
74.46608008860326
73.84476606337184
73.22419575782725
72.60409652968836
71.98401857213359
71.36324188435466
70.74058780734927
70.11362101316757
69.47874356115706
57.40585611403681
53.89268180148426
52.7061225142023
52.338694880131435
52.21265835710067
52.152582267918035
52.06642753968987
51.840780421522425
51.06887114436275
51.02851098887266
50.989028200936716
50.95047089092052
50.9128634745625
50.876279232286265
50.84077792573785
50.80640632145629
50.77319749145686
50.741170748412515
81.7575568811258
81.21631819728243
80.68085892595992
80.15102287650114
79.6265710667468
79.10718530803045
78.5924557846538
78.08185898484543
77.57472716554102
77.07020811245525
76.5672164099364
76.0644210385563
75.56048590683537
75.05468773041909
74.42645896920331
73.79908778105812
73.17245372681926
72.54626278336083
71.91998549680423
71.29278224254291
70.66335424919225
70.02985786212304
69.39002484666065
57.54063471604102
53.861293982274134
52.67442933981956
52.29512538818071
52.16787426641885
52.10609610149334
52.019847966130826
51.78312333474107
51.02807984792628
50.98835345362609
50.94941467360817
50.911326983757846
50.874147465658695
50.83793047423165
50.80272856607169
50.7685841565137
50.7355278397174
50.70357767942587
81.73850389722898