# vtk DataFile Version 2.0
Niestacjonarne zagadnienie cieplne - ogrzewanie wody w garnku stalowym
ASCII
DATASET UNSTRUCTURED_GRID
POINTS 1353 float
0.0 0.0 0.0
0.0 0.0015384615384615385 0.0
0.0 0.003076923076923077 0.0
0.0 0.004615384615384615 0.0
0.0 0.006153846153846154 0.0
0.0 0.007692307692307693 0.0
0.0 0.00923076923076923 0.0
0.0 0.010769230769230769 0.0
0.0 0.012307692307692308 0.0
0.0 0.013846153846153847 0.0
0.0 0.015384615384615385 0.0
0.0 0.016923076923076923 0.0
0.0 0.01846153846153846 0.0
0.0 0.02 0.0
0.0 0.020555555555555556 0.0
0.0 0.021111111111111112 0.0
0.0 0.021666666666666667 0.0
0.0 0.022222222222222223 0.0
0.0 0.02277777777777778 0.0
0.0 0.023333333333333334 0.0
0.0 0.02388888888888889 0.0
0.0 0.024444444444444446 0.0
0.0 0.025 0.0
0.0 0.036111111111111115 0.0
0.0 0.04722222222222222 0.0
0.0 0.058333333333333334 0.0
0.0 0.06944444444444445 0.0
0.0 0.08055555555555556 0.0
0.0 0.09166666666666667 0.0
0.0 0.10277777777777777 0.0
0.0 0.1138888888888889 0.0
0.0 0.125 0.0
0.0 0.12555555555555556 0.0
0.0 0.12611111111111112 0.0
0.0 0.12666666666666668 0.0
0.0 0.1272222222222222 0.0
0.0 0.12777777777777777 0.0
0.0 0.12833333333333333 0.0
0.0 0.1288888888888889 0.0
0.0 0.12944444444444445 0.0
0.0 0.13 0.0
5.555555555555556E-4 0.0 0.0
5.555555555555556E-4 0.0015384615384615385 0.0
5.555555555555556E-4 0.003076923076923077 0.0
5.555555555555556E-4 0.004615384615384615 0.0
5.555555555555556E-4 0.006153846153846154 0.0
5.555555555555556E-4 0.007692307692307693 0.0
5.555555555555556E-4 0.00923076923076923 0.0
5.555555555555556E-4 0.010769230769230769 0.0
5.555555555555556E-4 0.012307692307692308 0.0
5.555555555555556E-4 0.013846153846153847 0.0
5.555555555555556E-4 0.015384615384615385 0.0
5.555555555555556E-4 0.016923076923076923 0.0
5.555555555555556E-4 0.01846153846153846 0.0
5.555555555555556E-4 0.02 0.0
5.555555555555556E-4 0.020555555555555556 0.0
5.555555555555556E-4 0.021111111111111112 0.0
5.555555555555556E-4 0.021666666666666667 0.0
5.555555555555556E-4 0.022222222222222223 0.0
5.555555555555556E-4 0.02277777777777778 0.0
5.555555555555556E-4 0.023333333333333334 0.0
5.555555555555556E-4 0.02388888888888889 0.0
5.555555555555556E-4 0.024444444444444446 0.0
5.555555555555556E-4 0.025 0.0
5.555555555555556E-4 0.036111111111111115 0.0
5.555555555555556E-4 0.04722222222222222 0.0
5.555555555555556E-4 0.058333333333333334 0.0
5.555555555555556E-4 0.06944444444444445 0.0
5.555555555555556E-4 0.08055555555555556 0.0
5.555555555555556E-4 0.09166666666666667 0.0
5.555555555555556E-4 0.10277777777777777 0.0
5.555555555555556E-4 0.1138888888888889 0.0
5.555555555555556E-4 0.125 0.0
5.555555555555556E-4 0.12555555555555556 0.0
5.555555555555556E-4 0.12611111111111112 0.0
5.555555555555556E-4 0.12666666666666668 0.0
5.555555555555556E-4 0.1272222222222222 0.0
5.555555555555556E-4 0.12777777777777777 0.0
5.555555555555556E-4 0.12833333333333333 0.0
5.555555555555556E-4 0.1288888888888889 0.0
5.555555555555556E-4 0.12944444444444445 0.0
5.555555555555556E-4 0.13 0.0
0.0011111111111111111 0.0 0.0
0.0011111111111111111 0.0015384615384615385 0.0
0.0011111111111111111 0.003076923076923077 0.0
0.0011111111111111111 0.004615384615384615 0.0
0.0011111111111111111 0.006153846153846154 0.0
0.0011111111111111111 0.007692307692307693 0.0
0.0011111111111111111 0.00923076923076923 0.0
0.0011111111111111111 0.010769230769230769 0.0
0.0011111111111111111 0.012307692307692308 0.0
0.0011111111111111111 0.013846153846153847 0.0
0.0011111111111111111 0.015384615384615385 0.0
0.0011111111111111111 0.016923076923076923 0.0
0.0011111111111111111 0.01846153846153846 0.0
0.0011111111111111111 0.02 0.0
0.0011111111111111111 0.020555555555555556 0.0
0.0011111111111111111 0.021111111111111112 0.0
0.0011111111111111111 0.021666666666666667 0.0
0.0011111111111111111 0.022222222222222223 0.0
0.0011111111111111111 0.02277777777777778 0.0
0.0011111111111111111 0.023333333333333334 0.0
0.0011111111111111111 0.02388888888888889 0.0
0.0011111111111111111 0.024444444444444446 0.0
0.0011111111111111111 0.025 0.0
0.0011111111111111111 0.036111111111111115 0.0
0.0011111111111111111 0.04722222222222222 0.0
0.0011111111111111111 0.058333333333333334 0.0
0.0011111111111111111 0.06944444444444445 0.0
0.0011111111111111111 0.08055555555555556 0.0
0.0011111111111111111 0.09166666666666667 0.0
0.0011111111111111111 0.10277777777777777 0.0
0.0011111111111111111 0.1138888888888889 0.0
0.0011111111111111111 0.125 0.0
0.0011111111111111111 0.12555555555555556 0.0
0.0011111111111111111 0.12611111111111112 0.0
0.0011111111111111111 0.12666666666666668 0.0
0.0011111111111111111 0.1272222222222222 0.0
0.0011111111111111111 0.12777777777777777 0.0
0.0011111111111111111 0.12833333333333333 0.0
0.0011111111111111111 0.1288888888888889 0.0
0.0011111111111111111 0.12944444444444445 0.0
0.0011111111111111111 0.13 0.0
0.0016666666666666666 0.0 0.0
0.0016666666666666666 0.0015384615384615385 0.0
0.0016666666666666666 0.003076923076923077 0.0
0.0016666666666666666 0.004615384615384615 0.0
0.0016666666666666666 0.006153846153846154 0.0
0.0016666666666666666 0.007692307692307693 0.0
0.0016666666666666666 0.00923076923076923 0.0
0.0016666666666666666 0.010769230769230769 0.0
0.0016666666666666666 0.012307692307692308 0.0
0.0016666666666666666 0.013846153846153847 0.0
0.0016666666666666666 0.015384615384615385 0.0
0.0016666666666666666 0.016923076923076923 0.0
0.0016666666666666666 0.01846153846153846 0.0
0.0016666666666666666 0.02 0.0
0.0016666666666666666 0.020555555555555556 0.0
0.0016666666666666666 0.021111111111111112 0.0
0.0016666666666666666 0.021666666666666667 0.0
0.0016666666666666666 0.022222222222222223 0.0
0.0016666666666666666 0.02277777777777778 0.0
0.0016666666666666666 0.023333333333333334 0.0
0.0016666666666666666 0.02388888888888889 0.0
0.0016666666666666666 0.024444444444444446 0.0
0.0016666666666666666 0.025 0.0
0.0016666666666666666 0.036111111111111115 0.0
0.0016666666666666666 0.04722222222222222 0.0
0.0016666666666666666 0.058333333333333334 0.0
0.0016666666666666666 0.06944444444444445 0.0
0.0016666666666666666 0.08055555555555556 0.0
0.0016666666666666666 0.09166666666666667 0.0
0.0016666666666666666 0.10277777777777777 0.0
0.0016666666666666666 0.1138888888888889 0.0
0.0016666666666666666 0.125 0.0
0.0016666666666666666 0.12555555555555556 0.0
0.0016666666666666666 0.12611111111111112 0.0
0.0016666666666666666 0.12666666666666668 0.0
0.0016666666666666666 0.1272222222222222 0.0
0.0016666666666666666 0.12777777777777777 0.0
0.0016666666666666666 0.12833333333333333 0.0
0.0016666666666666666 0.1288888888888889 0.0
0.0016666666666666666 0.12944444444444445 0.0
0.0016666666666666666 0.13 0.0
0.0022222222222222222 0.0 0.0
0.0022222222222222222 0.0015384615384615385 0.0
0.0022222222222222222 0.003076923076923077 0.0
0.0022222222222222222 0.004615384615384615 0.0
0.0022222222222222222 0.006153846153846154 0.0
0.0022222222222222222 0.007692307692307693 0.0
0.0022222222222222222 0.00923076923076923 0.0
0.0022222222222222222 0.010769230769230769 0.0
0.0022222222222222222 0.012307692307692308 0.0
0.0022222222222222222 0.013846153846153847 0.0
0.0022222222222222222 0.015384615384615385 0.0
0.0022222222222222222 0.016923076923076923 0.0
0.0022222222222222222 0.01846153846153846 0.0
0.0022222222222222222 0.02 0.0
0.0022222222222222222 0.020555555555555556 0.0
0.0022222222222222222 0.021111111111111112 0.0
0.0022222222222222222 0.021666666666666667 0.0
0.0022222222222222222 0.022222222222222223 0.0
0.0022222222222222222 0.02277777777777778 0.0
0.0022222222222222222 0.023333333333333334 0.0
0.0022222222222222222 0.02388888888888889 0.0
0.0022222222222222222 0.024444444444444446 0.0
0.0022222222222222222 0.025 0.0
0.0022222222222222222 0.036111111111111115 0.0
0.0022222222222222222 0.04722222222222222 0.0
0.0022222222222222222 0.058333333333333334 0.0
0.0022222222222222222 0.06944444444444445 0.0
0.0022222222222222222 0.08055555555555556 0.0
0.0022222222222222222 0.09166666666666667 0.0
0.0022222222222222222 0.10277777777777777 0.0
0.0022222222222222222 0.1138888888888889 0.0
0.0022222222222222222 0.125 0.0
0.0022222222222222222 0.12555555555555556 0.0
0.0022222222222222222 0.12611111111111112 0.0
0.0022222222222222222 0.12666666666666668 0.0
0.0022222222222222222 0.1272222222222222 0.0
0.0022222222222222222 0.12777777777777777 0.0
0.0022222222222222222 0.12833333333333333 0.0
0.0022222222222222222 0.1288888888888889 0.0
0.0022222222222222222 0.12944444444444445 0.0
0.0022222222222222222 0.13 0.0
0.002777777777777778 0.0 0.0
0.002777777777777778 0.0015384615384615385 0.0
0.002777777777777778 0.003076923076923077 0.0
0.002777777777777778 0.004615384615384615 0.0
0.002777777777777778 0.006153846153846154 0.0
0.002777777777777778 0.007692307692307693 0.0
0.002777777777777778 0.00923076923076923 0.0
0.002777777777777778 0.010769230769230769 0.0
0.002777777777777778 0.012307692307692308 0.0
0.002777777777777778 0.013846153846153847 0.0
0.002777777777777778 0.015384615384615385 0.0
0.002777777777777778 0.016923076923076923 0.0
0.002777777777777778 0.01846153846153846 0.0
0.002777777777777778 0.02 0.0
0.002777777777777778 0.020555555555555556 0.0
0.002777777777777778 0.021111111111111112 0.0
0.002777777777777778 0.021666666666666667 0.0
0.002777777777777778 0.022222222222222223 0.0
0.002777777777777778 0.02277777777777778 0.0
0.002777777777777778 0.023333333333333334 0.0
0.002777777777777778 0.02388888888888889 0.0
0.002777777777777778 0.024444444444444446 0.0
0.002777777777777778 0.025 0.0
0.002777777777777778 0.036111111111111115 0.0
0.002777777777777778 0.04722222222222222 0.0
0.002777777777777778 0.058333333333333334 0.0
0.002777777777777778 0.06944444444444445 0.0
0.002777777777777778 0.08055555555555556 0.0
0.002777777777777778 0.09166666666666667 0.0
0.002777777777777778 0.10277777777777777 0.0
0.002777777777777778 0.1138888888888889 0.0
0.002777777777777778 0.125 0.0
0.002777777777777778 0.12555555555555556 0.0
0.002777777777777778 0.12611111111111112 0.0
[...]
POINT_DATA 1353
SCALARS Temperatura float 1
LOOKUP_TABLE default
118.05797363845099
117.5461104807528
117.03850588319163
116.53476290933838
116.03450095562411
115.5372441105363
115.04237587349154
114.54907968880434
114.05625721071796
113.56236841318776
113.06526246310479
112.56121256576151
112.04573408173111
111.49214672053067
110.76377116557352
110.08482550115079
109.4212826963232
108.7673067565367
108.11930596029762
107.47500042991791
106.83276055973438
106.19140920247058
105.55015506116413
94.39290976107445
90.34673762431179
89.15556432320155
88.75176703538132
88.61440135817107
88.52839343861334
88.37869878081186
87.90392206337
86.61420741921313
86.54203501322571
86.47028035669885
86.39900607437232
86.32825756179133
86.25806768426618
86.1884603506924
86.11945280052022
86.05105679357918
85.98327906972261
118.0871888639535
117.57522104866914
117.06748538747824
116.56361741385375
116.06323717442325
115.5658721396536
115.07090887435719
114.57753688501064
114.08466167396526
113.59077796821906
113.09367216298479
112.5901206836482
112.0737482323542
111.53103154420614
110.84576856429493
110.17057114554957
109.50910690842468
108.85601908844012
108.20843087239224
107.56425531651084
106.92193995225465
106.2803291502776
105.63862920243994
94.45681492026377
90.41756829947968
89.2261099141168
88.82259498534796
88.68528433276823
88.59932296544143
88.44960160403417
87.97564746570724
86.68290968672467
86.61062106634529
86.53876191445659
86.46739213051826
86.39655470158573
86.32628071837924
86.25659301312402
86.18750831905258
86.11903824636943
86.051189536686
118.11649858709845
117.60448563168146
117.09666340455179
116.5927188088654
116.09228139434754
115.59488718135557
115.09993329530143
114.60662419778392
114.11389248964984
113.62026956884736
113.12365538069454
112.62095312660296
112.10644806170339
111.57447713943503
110.90800451789212
110.24598510848789
109.59048719162918
108.94103905443853
108.29585377536254
107.65332665984018
107.0120841792873
106.37101395444748
105.72930104117953
94.4962195069418
90.48628462532355
89.29630176621767
88.89449099633669
88.75761590941396
88.67197591621152
88.52246813325291
88.05198125025596
86.75277774460449
86.68029083745783
86.60826787893045
86.53675987706833
86.46580217599934
86.39542044077203
86.32563439540012
86.2564594678121
86.18790701871953
86.11998392526553
118.14593177026099
117.63390484917609
117.126038706147
116.62206476675875
116.12163019619564
115.62428461113377
115.12944228385848
114.63633300244733
114.14393037233654
113.65083559175062
113.15509799475562
112.65384866174156
112.14278515020125
111.61966889769376
110.96618474255528
110.3150164307502
109.66740756420046
109.0234175242933
108.38225421393611
107.74275184868752
107.10370737537404
106.46401347401262
105.8227717260443
94.51060893815585
90.5531398047508
89.36607131783057
88.96748102520371
88.83138955119685
88.74636345753845
88.59727140287711
88.1329804907136
86.8237693563356
86.75101125457911
86.67877471582648
86.60709375164221
86.53598984272169
86.46547959512866
86.39557826015326
86.32630001981019
86.25765660106124
86.18965558857883
118.17550297663531
117.66348162717682
117.15560889012808
116.65165133295149
116.15127789880425
115.65405660424865
115.15942496880197
114.66664712500877
114.17475136229739
113.68243483372969
113.18792024529193
112.68871461568571
112.18177062822159
111.66622523268043
111.02320721065396
110.381563588468
109.74196099333659
109.10445954786861
108.46854643389408
107.83330729185015
107.1976032924748
106.56022687722535
105.92006817081462
94.49912515545427
90.61856733986549
89.43529979580177
89.04160954883444
88.9065924928695
88.82250377488437
88.67396396249934
88.2187390425078
86.89581013719062
86.82272621084314
86.75024462703526
86.67837036306841
86.60710319074516
86.53644756565343
86.46641463845961
86.39701920402543
86.32827527908073
86.2601924333425
118.20521937915592
117.69321766971765
117.18537067686547
116.68147286069339
116.181216598758
115.68419235805169
115.18986630977389
114.69754467863231
114.20632261924317
113.71501113436307
113.22203408987731
112.72533156080117
112.22278288980013
111.71403435910747
111.08024944223808
110.4473877734039
109.81576704022321
109.1853407635299
108.55565405320823
107.92585847750411
107.29475505522376
106.66087862510264
106.02269033964892
94.4605388827986
90.68319677267057
89.50381081822528
89.11694259564621
88.98320435644578
88.90042323815506
88.75247606141035
88.30939051391474
86.96878816515282
86.89535702574962
86.82263038223508
86.7505649026458
86.67912867818086
86.60831358425862
86.5381310317501
86.46860164522401
86.3997454175252
86.33157600514437
118.23508357204261
117.72311259836009
117.21531960806351
116.7115220566073
116.2114362443064
115.71467824648659
115.22074743845091
114.7289985858722
114.23860319571561
113.74849885409608
113.2573302337444
112.7634596068969
112.26541638534934
111.76301691276097
111.13784099651916
110.51339474607926
109.88979351697945
109.26691084731326
108.6443093083268
108.0211756476739
107.39619297072834
106.76747390810536
106.13269551483475
94.39320525199534
90.7478776049823
89.571359317854
89.19357228042618
89.0611950760708
88.98015814375566
88.83271291914164
88.40511291758094
87.04254489589425
86.96880523617621
86.89588698212165
86.82366377448669
86.75206290460055
86.68107040971495
86.6107130763366
86.54102646188028
86.47204185059478
86.40377968010097
118.2650948687356
117.75316386456124
117.2454498048926
116.74179000664292
116.2419247380837
115.7454980188474
115.25204605249894
114.76097712978775
114.27154573756174
113.78282418749312
113.29368520847552
112.80287384433062
112.30938156324294
111.81308104306214
111.19621059784403
110.58003081506722
109.96455588212942
109.34963875614399
108.73490637356277
108.11966893776854
107.5027399199547
106.88167368207819
106.25284625998262
94.29499468508553
90.81371405876847
89.63761583722362
89.27162320575401
89.14052196606163
89.06175717574408
88.91455080377392
88.50613579127989
87.11685983266551
87.04296430892914
86.96999512260444
86.89769560053425
86.82592176977042
86.7547162778208
86.6841432843525
86.61426476538405
86.54512894462069
86.47676562746838
118.2952500035843
117.78336687749182
117.27575385960071
116.77226620235683
116.27266806083159
115.7766330353401
115.28373682614101
114.79344468739698
114.30509795332374
113.81790705284354
113.3309697157297
112.84337068867164
112.35445006081139
111.86411577936904
111.25541726042343
110.64746733577279
110.04024695098263
109.43364550995977
108.82742374741177
108.22116100861777
107.61412601256353
107.00513141480924
106.38686843606581
94.16318507466991
90.88211514430562
89.70214466113794
89.35126129120896
89.22112570048758
89.14528472759204
88.9978317619625
88.61275000740817
87.1914287337469
87.11765801952232
87.04512480711749
86.9727471445368
86.90074289128688
86.8292513937295
86.75839631972303
86.68827492820206
86.61895609089237
86.55048040798756
118.32554357609008
117.8137151845916
117.30622282631974
116.80293858694408
116.30365041191554
115.80806252399168
115.31579184896685
114.82636252011635
114.3392039696995
113.8536635145102
113.36905408683168
112.88476474651839
112.40042533900177
111.91599289212536
111.3154176693317
110.71570441005953
110.11683847890694
109.51877869993835
108.92146036605455
108.3248163992042
107.72883328504605
107.13367132907305
92.66785629181098
92.66785629181098
92.66785629181098
92.66785629181098
92.66785629181098
92.66785629181098
92.66785629181098
92.66785629181098
92.66785629181098
92.66785629181098
87.19401624731407
87.12155656050683
87.04895472617896
86.9765707133143
86.90466622037327
86.8334299958993
86.76299555420664
86.6934518107635
86.62484944957907
118.91707504269026
118.40690155018254
117.90346798919259
117.40685227147534
116.91718787400525
116.43467663487526
115.95960914964762
115.49239407561983
115.0335976299204
114.58399402212808
114.14462564740901
113.71687011632329
113.30252054716755
112.90392048802289
112.42211898797787
111.94421725529227
111.47084515022239
111.00267352820501
110.54042202351917
110.08486280836237
109.63681585835103
109.19712753219919
92.66785629181098
92.66785629181098
92.66785629181098
92.66785629181098
92.66785629181098
92.66785629181098
92.66785629181098
92.66785629181098
92.66785629181098
92.66785629181098
88.64875186741692
88.53977079473512
88.43680778336667
88.33951868611258
88.24763222840103
88.16093831007097
88.07927952657212
88.00254557236404
87.93066964317666
119.45495172321085
118.94587246826588
118.44482778632648
117.95187068539894
117.46708427032793
116.99057969397933
116.52249194789249
116.06297224060783
115.61217516447788
115.17023823714601
114.73725090575346
114.31320928968682
113.89794872050844
113.49103372332699
112.99196995619344
112.49456001708917
111.9985893187331
111.50381543638126
111.00996025561531
110.51670252586003
110.02367190056145
109.53044659803724
92.66785629181098
92.66785629181098
92.66785629181098
92.66785629181098
92.66785629181098
92.66785629181098
92.66785629181098
92.66785629181098
92.66785629181098
92.66785629181098
89.04793772564243
88.96410665781346
88.88173631866333
88.80100764570706
88.72206234672994
88.64500895385261
88.5699273348042
88.49687184957538
88.42587345713623
119.88025328035964
119.37147861263857
118.87063147840534
118.37771924893698
117.89274864398631
117.415724048161
116.94664540869859
116.48550602468158
116.03229078854487
115.58697581579497
115.14953090293135
114.71992707276816
114.29815357042892
113.8842537478786
113.37665344557197
112.87100574163077
112.36736075058893
111.86577961916487
111.36633844584489
110.869132434433
110.37428007717368
109.88192687491222
92.66785629181098
92.66785629181098
92.66785629181098
92.66785629181098
92.66785629181098
92.66785629181098
92.66785629181098
92.66785629181098
92.66785629181098
92.66785629181098
89.1948853712094
89.11070234793179
89.02851608404248
88.9482688633817
88.86991669709775
88.79342653957741
88.71877420247081
88.64594286963842
88.57492209812541
120.18910020029956
119.68040114412219
119.17926977060927
118.68570820112068
118.19971593550966
117.72129004870797
117.25042549990535
116.78711556627671
116.33135235986745
115.88312727724
115.44243104332882
115.00925265771858
114.58357570255713
114.16536850474756
113.65205531897168
113.14056098164595
112.63086762632446
112.12295348275539
111.61679133129783
111.11234676258925
110.60957625731632
110.10842517573288
92.66785629181098
92.66785629181098
92.66785629181098
92.66785629181098
92.66785629181098
92.66785629181098
92.66785629181098
92.66785629181098
92.66785629181098
92.66785629181098
89.23964173696196
89.15735332839705
89.07664323196134
88.99753072216588
88.92002980099485
88.8441503147424
88.76989878532665
88.69727900190745
88.6262924177248
120.3965848329233
119.88792473422022
119.38656828700898
118.89251797593128
118.4057739164133
117.92633382387442
117.45419295030044
116.9893439691953
116.53177679564341
116.08147834917966
115.63843231530207
115.20261907138539
114.77401622915256
114.35260093933725
113.83513348225503
113.31946844044666
112.80560509718521
112.29354389416962
111.78328697757104
111.27483884262938
110.76820708881172
110.26340327968319
92.66785629181098
92.66785629181098
92.66785629181098
92.66785629181098
92.66785629181098
92.66785629181098
92.66785629181098
92.66785629181098
92.66785629181098
92.66785629181098
89.25496070212829
89.17281654771546
89.09228222722936
89.01335077519715
88.9360168134917
88.86027613120359
88.78612537528024
88.7135618318427
88.6425832805838
120.51586288106657
120.00722365108865
119.50573312787297
119.01139371642296
118.52420549658615
118.04416622257216
117.57127132988666
117.10551395767983
116.64688499619379
116.19537316782248
115.75096514194625
115.31364565531764
114.88339752011066
114.46020116133131
113.9404300774618
113.4224416372621
112.90623169193593
112.39179565858333
111.87912832812724
111.36822362797145
110.85907432924361
110.35167169219272
92.66785629181098
92.66785629181098
92.66785629181098
92.66785629181098
92.66785629181098
92.66785629181098
92.66785629181098
92.66785629181098
92.66785629181098
92.66785629181098
89.25967596564121
89.17768966804861
89.09727687646871
89.01843816822677
88.94117349853416
88.86548235994785
88.79136389792916
88.71881699151709
88.64784030644489
120.55476313031726
120.04613048303145
119.54459559316518
119.05016093020332
118.56282671801686
118.08259094355064
117.60944936709494
117.14339553022504
116.6844207555158
116.23251413065933
115.7876624708447
115.34985026442517
114.91905965174045
114.495270620017
113.97473050263028
113.45596768340802
112.93897914417
112.42376202309914
111.91031372496735
111.39863206129745
110.88871542860431
110.3805630317473
92.66785629181098
92.66785629181098
92.66785629181098
92.66785629181098
92.66785629181098
92.66785629181098
92.66785629181098
92.66785629181098
92.66785629181098
92.66785629181098
89.26078047665338
89.17880468892854
89.0984063966281
89.0195832296067
88.94233310795055
88.86665414552022
88.79254458083415
88.72000272927563
88.64902695190654
120.51586288106728
120.00722365108936
119.50573312787365
119.01139371642363
118.52420549658673
118.04416622257267
117.57127132988715
117.10551395768034
116.64688499619434
116.19537316782308
115.75096514194684
115.31364565531828
114.8833975201113
114.46020116133192
113.94043007746244
113.4224416372627
112.90623169193653
112.39179565858386
111.87912832812775
111.36822362797194
110.85907432924411
110.35167169219325
92.66785629181098
92.66785629181098
92.66785629181098
92.66785629181098
92.66785629181098
92.66785629181098
92.66785629181098
92.66785629181098
92.66785629181098
92.66785629181098
89.25967596564206
89.17768966804951
89.09727687646964
89.01843816822769
88.9411734985351
88.86548235994883
88.79136389793017
88.71881699151808
88.64784030644587
120.3965848329244
119.88792473422136
119.38656828701014
118.8925179759324
118.40577391641439
117.92633382387548
117.45419295030145
116.98934396919631
116.5317767956444
116.08147834918064
115.63843231530304
115.20261907138635
114.77401622915356
114.3526009393383
113.83513348225604
113.31946844044768
112.80560509718623
112.29354389417064
111.78328697757206
111.27483884263044
110.76820708881282
110.26340327968424
92.66785629181098
92.66785629181098
92.66785629181098
92.66785629181098
92.66785629181098
92.66785629181098
92.66785629181098
92.66785629181098
92.66785629181098
92.66785629181098
89.25496070213043
89.17281654771762
89.09228222723156
89.01335077519941
88.93601681349395
88.86027613120582
88.78612537528248
88.71356183184497
88.64258328058608
120.18910020030036
119.68040114412292
119.17926977060996
118.68570820112132
118.1997159355103
117.72129004870857
117.25042549990592
116.78711556627721
116.33135235986795
115.88312727724049
115.44243104332942
115.0092526577192
114.58357570255784
114.16536850474827
113.65205531897244
113.14056098164673
112.63086762632521
112.12295348275607
111.61679133129839
111.1123467625897
110.60957625731668
110.10842517573322
92.66785629181098
92.66785629181098
92.66785629181098
92.66785629181098
92.66785629181098
92.66785629181098
92.66785629181098
92.66785629181098
92.66785629181098
92.66785629181098
89.23964173696717
89.15735332840244
89.07664323196681
88.99753072217136
88.92002980100033
88.84415031474781
88.76989878533196
88.69727900191262
88.62629241772991
119.88025328036018
119.37147861263912
118.87063147840597
118.37771924893767
117.89274864398698
117.41572404816166
116.94664540869928
116.48550602468231
116.03229078854562
115.5869758157957
115.14953090293204
114.7199270727688
114.2981535704295
113.88425374787916
113.37665344557256
112.87100574163125
112.36736075058944
111.86577961916547
111.36633844584564
110.86913243443384
110.37428007717453
109.88192687491309
92.66785629181098
92.66785629181098
92.66785629181098
92.66785629181098
92.66785629181098
92.66785629181098
92.66785629181098
92.66785629181098
92.66785629181098
92.66785629181098
89.19488537121364
89.1107023479361
89.02851608404686
88.94826886338618
88.86991669710231
88.79342653958203
88.71877420247549
88.64594286964316
88.57492209813019
119.45495172321043
118.94587246826548
118.44482778632604
117.95187068539843
117.46708427032743
116.99057969397889
116.52249194789205
116.06297224060742
115.61217516447748
115.17023823714568
114.73725090575326
114.31320928968668
113.89794872050832
113.49103372332688
112.99196995619332
112.49456001708911
111.99858931873304
111.50381543638125
111.00996025561523
110.5167025258599
110.0236719005613
109.53044659803702
92.66785629181098
92.66785629181098
92.66785629181098
92.66785629181098
92.66785629181098
92.66785629181098
92.66785629181098
92.66785629181098
92.66785629181098
92.66785629181098
89.04793772564557
88.96410665781666
88.88173631866655
88.80100764571027
88.72206234673318
88.64500895385586
88.56992733480742
88.49687184957857
88.42587345713942
118.91707504268942
118.4069015501817
117.90346798919172
117.4068522714745
116.91718787400441
116.43467663487445
115.9596091496469
115.49239407561909
115.03359762991967
114.58399402212744
114.14462564740847
113.7168701163229
113.30252054716713
112.90392048802252
112.42211898797757
111.94421725529199
111.47084515022215
111.00267352820474
110.5404220235189
110.08486280836206
109.63681585835069
109.19712753219883
92.66785629181098
92.66785629181098
92.66785629181098
92.66785629181098
92.66785629181098
92.66785629181098
92.66785629181098
92.66785629181098
92.66785629181098
92.66785629181098
88.64875186741901
88.53977079473727
88.43680778336889
88.33951868611483
88.2476322284033
88.16093831007328
88.07927952657445
88.00254557236642
87.93066964317902
118.32554357608889
117.81371518459046
117.30622282631873
116.80293858694323
116.3036504119149
115.80806252399114
115.3157918489663
114.82636252011581
114.33920396969901
113.85366351450966
113.36905408683113
112.88476474651779
112.4004253390013
111.915992892125
111.31541766933147
110.71570441005952
110.11683847890707
109.51877869993868
108.921460366055
108.32481639920479
107.72883328504673
107.13367132907378
92.66785629181098
92.66785629181098
92.66785629181098
92.66785629181098
92.66785629181098
92.66785629181098
92.66785629181098
92.66785629181098
92.66785629181098
92.66785629181098
87.19401624731653
87.12155656050932
87.04895472618148
86.97657071331687
86.90466622037589
86.83342999590194
86.76299555420924
86.69345181076606
86.62484944958163
118.29525000358298
117.78336687749061
117.27575385959975
116.77226620235596
116.27266806083101
115.77663303533946
115.28373682614044
114.7934446873964
114.30509795332321
113.81790705284298
113.3309697157291
112.84337068867096
112.35445006081085
111.86411577936875
111.25541726042321
110.64746733577273
110.04024695098285
109.43364550996014
108.82742374741235
108.2211610086184
107.61412601256414
107.00513141480994
106.38686843606658
94.16318507467207
90.88211514430549
89.70214466113777
89.35126129121052
89.22112570048809
89.14528472759294
88.99783176196325
88.61275000740703
87.19142873374925
87.11765801952471
87.04512480711989
86.97274714453926
86.90074289128945
86.82925139373202
86.75839631972553
86.68827492820456
86.61895609089493
86.55048040799004
118.26509486873421
117.75316386456
117.2454498048916
116.74179000664205
116.241924738083
115.74549801884682
115.2520460524983
114.7609771297872
114.27154573756128
113.78282418749261
113.29368520847493
112.80287384432995
112.30938156324241
111.81308104306181
111.1962105978439
110.58003081506715
109.9645558821296
109.34963875614433
108.73490637356332
108.11966893776919
107.50273991995542
106.88167368207901
106.25284625998347
94.29499468508774
90.81371405876841
89.63761583722359
89.27162320575562
89.1405219660621
89.06175717574499
88.91455080377474
88.50613579127874
87.1168598326679
87.04296430893149
86.96999512260683
86.89769560053671
86.82592176977285
86.75471627782329
86.68414328435502
86.61426476538655
86.54512894462317
86.47676562747087
118.23508357204108
117.72311259835885
117.21531960806253
116.7115220566064
116.21143624430567
115.71467824648599
115.22074743845022
114.72899858587168
114.23860319571506
113.74849885409559
113.25733023374369
112.76345960689623
112.26541638534871
111.76301691276063
111.13784099651905
110.51339474607927