# vtk DataFile Version 2.0
Niestacjonarne zagadnienie cieplne - ogrzewanie wody w garnku stalowym
ASCII
DATASET UNSTRUCTURED_GRID
POINTS 1353 float
0.0 0.0 0.0
0.0 0.0015384615384615385 0.0
0.0 0.003076923076923077 0.0
0.0 0.004615384615384615 0.0
0.0 0.006153846153846154 0.0
0.0 0.007692307692307693 0.0
0.0 0.00923076923076923 0.0
0.0 0.010769230769230769 0.0
0.0 0.012307692307692308 0.0
0.0 0.013846153846153847 0.0
0.0 0.015384615384615385 0.0
0.0 0.016923076923076923 0.0
0.0 0.01846153846153846 0.0
0.0 0.02 0.0
0.0 0.020555555555555556 0.0
0.0 0.021111111111111112 0.0
0.0 0.021666666666666667 0.0
0.0 0.022222222222222223 0.0
0.0 0.02277777777777778 0.0
0.0 0.023333333333333334 0.0
0.0 0.02388888888888889 0.0
0.0 0.024444444444444446 0.0
0.0 0.025 0.0
0.0 0.036111111111111115 0.0
0.0 0.04722222222222222 0.0
0.0 0.058333333333333334 0.0
0.0 0.06944444444444445 0.0
0.0 0.08055555555555556 0.0
0.0 0.09166666666666667 0.0
0.0 0.10277777777777777 0.0
0.0 0.1138888888888889 0.0
0.0 0.125 0.0
0.0 0.12555555555555556 0.0
0.0 0.12611111111111112 0.0
0.0 0.12666666666666668 0.0
0.0 0.1272222222222222 0.0
0.0 0.12777777777777777 0.0
0.0 0.12833333333333333 0.0
0.0 0.1288888888888889 0.0
0.0 0.12944444444444445 0.0
0.0 0.13 0.0
5.555555555555556E-4 0.0 0.0
5.555555555555556E-4 0.0015384615384615385 0.0
5.555555555555556E-4 0.003076923076923077 0.0
5.555555555555556E-4 0.004615384615384615 0.0
5.555555555555556E-4 0.006153846153846154 0.0
5.555555555555556E-4 0.007692307692307693 0.0
5.555555555555556E-4 0.00923076923076923 0.0
5.555555555555556E-4 0.010769230769230769 0.0
5.555555555555556E-4 0.012307692307692308 0.0
5.555555555555556E-4 0.013846153846153847 0.0
5.555555555555556E-4 0.015384615384615385 0.0
5.555555555555556E-4 0.016923076923076923 0.0
5.555555555555556E-4 0.01846153846153846 0.0
5.555555555555556E-4 0.02 0.0
5.555555555555556E-4 0.020555555555555556 0.0
5.555555555555556E-4 0.021111111111111112 0.0
5.555555555555556E-4 0.021666666666666667 0.0
5.555555555555556E-4 0.022222222222222223 0.0
5.555555555555556E-4 0.02277777777777778 0.0
5.555555555555556E-4 0.023333333333333334 0.0
5.555555555555556E-4 0.02388888888888889 0.0
5.555555555555556E-4 0.024444444444444446 0.0
5.555555555555556E-4 0.025 0.0
5.555555555555556E-4 0.036111111111111115 0.0
5.555555555555556E-4 0.04722222222222222 0.0
5.555555555555556E-4 0.058333333333333334 0.0
5.555555555555556E-4 0.06944444444444445 0.0
5.555555555555556E-4 0.08055555555555556 0.0
5.555555555555556E-4 0.09166666666666667 0.0
5.555555555555556E-4 0.10277777777777777 0.0
5.555555555555556E-4 0.1138888888888889 0.0
5.555555555555556E-4 0.125 0.0
5.555555555555556E-4 0.12555555555555556 0.0
5.555555555555556E-4 0.12611111111111112 0.0
5.555555555555556E-4 0.12666666666666668 0.0
5.555555555555556E-4 0.1272222222222222 0.0
5.555555555555556E-4 0.12777777777777777 0.0
5.555555555555556E-4 0.12833333333333333 0.0
5.555555555555556E-4 0.1288888888888889 0.0
5.555555555555556E-4 0.12944444444444445 0.0
5.555555555555556E-4 0.13 0.0
0.0011111111111111111 0.0 0.0
0.0011111111111111111 0.0015384615384615385 0.0
0.0011111111111111111 0.003076923076923077 0.0
0.0011111111111111111 0.004615384615384615 0.0
0.0011111111111111111 0.006153846153846154 0.0
0.0011111111111111111 0.007692307692307693 0.0
0.0011111111111111111 0.00923076923076923 0.0
0.0011111111111111111 0.010769230769230769 0.0
0.0011111111111111111 0.012307692307692308 0.0
0.0011111111111111111 0.013846153846153847 0.0
0.0011111111111111111 0.015384615384615385 0.0
0.0011111111111111111 0.016923076923076923 0.0
0.0011111111111111111 0.01846153846153846 0.0
0.0011111111111111111 0.02 0.0
0.0011111111111111111 0.020555555555555556 0.0
0.0011111111111111111 0.021111111111111112 0.0
0.0011111111111111111 0.021666666666666667 0.0
0.0011111111111111111 0.022222222222222223 0.0
0.0011111111111111111 0.02277777777777778 0.0
0.0011111111111111111 0.023333333333333334 0.0
0.0011111111111111111 0.02388888888888889 0.0
0.0011111111111111111 0.024444444444444446 0.0
0.0011111111111111111 0.025 0.0
0.0011111111111111111 0.036111111111111115 0.0
0.0011111111111111111 0.04722222222222222 0.0
0.0011111111111111111 0.058333333333333334 0.0
0.0011111111111111111 0.06944444444444445 0.0
0.0011111111111111111 0.08055555555555556 0.0
0.0011111111111111111 0.09166666666666667 0.0
0.0011111111111111111 0.10277777777777777 0.0
0.0011111111111111111 0.1138888888888889 0.0
0.0011111111111111111 0.125 0.0
0.0011111111111111111 0.12555555555555556 0.0
0.0011111111111111111 0.12611111111111112 0.0
0.0011111111111111111 0.12666666666666668 0.0
0.0011111111111111111 0.1272222222222222 0.0
0.0011111111111111111 0.12777777777777777 0.0
0.0011111111111111111 0.12833333333333333 0.0
0.0011111111111111111 0.1288888888888889 0.0
0.0011111111111111111 0.12944444444444445 0.0
0.0011111111111111111 0.13 0.0
0.0016666666666666666 0.0 0.0
0.0016666666666666666 0.0015384615384615385 0.0
0.0016666666666666666 0.003076923076923077 0.0
0.0016666666666666666 0.004615384615384615 0.0
0.0016666666666666666 0.006153846153846154 0.0
0.0016666666666666666 0.007692307692307693 0.0
0.0016666666666666666 0.00923076923076923 0.0
0.0016666666666666666 0.010769230769230769 0.0
0.0016666666666666666 0.012307692307692308 0.0
0.0016666666666666666 0.013846153846153847 0.0
0.0016666666666666666 0.015384615384615385 0.0
0.0016666666666666666 0.016923076923076923 0.0
0.0016666666666666666 0.01846153846153846 0.0
0.0016666666666666666 0.02 0.0
0.0016666666666666666 0.020555555555555556 0.0
0.0016666666666666666 0.021111111111111112 0.0
0.0016666666666666666 0.021666666666666667 0.0
0.0016666666666666666 0.022222222222222223 0.0
0.0016666666666666666 0.02277777777777778 0.0
0.0016666666666666666 0.023333333333333334 0.0
0.0016666666666666666 0.02388888888888889 0.0
0.0016666666666666666 0.024444444444444446 0.0
0.0016666666666666666 0.025 0.0
0.0016666666666666666 0.036111111111111115 0.0
0.0016666666666666666 0.04722222222222222 0.0
0.0016666666666666666 0.058333333333333334 0.0
0.0016666666666666666 0.06944444444444445 0.0
0.0016666666666666666 0.08055555555555556 0.0
0.0016666666666666666 0.09166666666666667 0.0
0.0016666666666666666 0.10277777777777777 0.0
0.0016666666666666666 0.1138888888888889 0.0
0.0016666666666666666 0.125 0.0
0.0016666666666666666 0.12555555555555556 0.0
0.0016666666666666666 0.12611111111111112 0.0
0.0016666666666666666 0.12666666666666668 0.0
0.0016666666666666666 0.1272222222222222 0.0
0.0016666666666666666 0.12777777777777777 0.0
0.0016666666666666666 0.12833333333333333 0.0
0.0016666666666666666 0.1288888888888889 0.0
0.0016666666666666666 0.12944444444444445 0.0
0.0016666666666666666 0.13 0.0
0.0022222222222222222 0.0 0.0
0.0022222222222222222 0.0015384615384615385 0.0
0.0022222222222222222 0.003076923076923077 0.0
0.0022222222222222222 0.004615384615384615 0.0
0.0022222222222222222 0.006153846153846154 0.0
0.0022222222222222222 0.007692307692307693 0.0
0.0022222222222222222 0.00923076923076923 0.0
0.0022222222222222222 0.010769230769230769 0.0
0.0022222222222222222 0.012307692307692308 0.0
0.0022222222222222222 0.013846153846153847 0.0
0.0022222222222222222 0.015384615384615385 0.0
0.0022222222222222222 0.016923076923076923 0.0
0.0022222222222222222 0.01846153846153846 0.0
0.0022222222222222222 0.02 0.0
0.0022222222222222222 0.020555555555555556 0.0
0.0022222222222222222 0.021111111111111112 0.0
0.0022222222222222222 0.021666666666666667 0.0
0.0022222222222222222 0.022222222222222223 0.0
0.0022222222222222222 0.02277777777777778 0.0
0.0022222222222222222 0.023333333333333334 0.0
0.0022222222222222222 0.02388888888888889 0.0
0.0022222222222222222 0.024444444444444446 0.0
0.0022222222222222222 0.025 0.0
0.0022222222222222222 0.036111111111111115 0.0
0.0022222222222222222 0.04722222222222222 0.0
0.0022222222222222222 0.058333333333333334 0.0
0.0022222222222222222 0.06944444444444445 0.0
0.0022222222222222222 0.08055555555555556 0.0
0.0022222222222222222 0.09166666666666667 0.0
0.0022222222222222222 0.10277777777777777 0.0
0.0022222222222222222 0.1138888888888889 0.0
0.0022222222222222222 0.125 0.0
0.0022222222222222222 0.12555555555555556 0.0
0.0022222222222222222 0.12611111111111112 0.0
0.0022222222222222222 0.12666666666666668 0.0
0.0022222222222222222 0.1272222222222222 0.0
0.0022222222222222222 0.12777777777777777 0.0
0.0022222222222222222 0.12833333333333333 0.0
0.0022222222222222222 0.1288888888888889 0.0
0.0022222222222222222 0.12944444444444445 0.0
0.0022222222222222222 0.13 0.0
0.002777777777777778 0.0 0.0
0.002777777777777778 0.0015384615384615385 0.0
0.002777777777777778 0.003076923076923077 0.0
0.002777777777777778 0.004615384615384615 0.0
0.002777777777777778 0.006153846153846154 0.0
0.002777777777777778 0.007692307692307693 0.0
0.002777777777777778 0.00923076923076923 0.0
0.002777777777777778 0.010769230769230769 0.0
0.002777777777777778 0.012307692307692308 0.0
0.002777777777777778 0.013846153846153847 0.0
0.002777777777777778 0.015384615384615385 0.0
0.002777777777777778 0.016923076923076923 0.0
0.002777777777777778 0.01846153846153846 0.0
0.002777777777777778 0.02 0.0
0.002777777777777778 0.020555555555555556 0.0
0.002777777777777778 0.021111111111111112 0.0
0.002777777777777778 0.021666666666666667 0.0
0.002777777777777778 0.022222222222222223 0.0
0.002777777777777778 0.02277777777777778 0.0
0.002777777777777778 0.023333333333333334 0.0
0.002777777777777778 0.02388888888888889 0.0
0.002777777777777778 0.024444444444444446 0.0
0.002777777777777778 0.025 0.0
0.002777777777777778 0.036111111111111115 0.0
0.002777777777777778 0.04722222222222222 0.0
0.002777777777777778 0.058333333333333334 0.0
0.002777777777777778 0.06944444444444445 0.0
0.002777777777777778 0.08055555555555556 0.0
0.002777777777777778 0.09166666666666667 0.0
0.002777777777777778 0.10277777777777777 0.0
0.002777777777777778 0.1138888888888889 0.0
0.002777777777777778 0.125 0.0
0.002777777777777778 0.12555555555555556 0.0
0.002777777777777778 0.12611111111111112 0.0
[...]
POINT_DATA 1353
SCALARS Temperatura float 1
LOOKUP_TABLE default
65.80509511204203
65.25137744964671
64.70435584739245
64.1636786838465
63.62904353539685
63.10009240819294
62.57637805924686
62.05732484039106
61.54217901828924
61.029921887970765
60.51917275373931
60.00774544267651
59.49295226568516
58.962486651710066
58.28704593300714
57.63315044943334
56.985989159085605
56.3427683542694
55.7016617641266
55.0614260160508
54.42113985251557
53.78014901168383
53.13807326692617
41.87280848752826
37.78031607588986
36.57811953213318
36.1731485518318
36.043890324959
35.98749497809366
35.927129833200844
35.75471219968346
35.298705046594705
35.27582836419631
35.253575729378966
35.23203636050071
35.21129069139722
35.191408658827264
35.172448428940505
35.154455556927246
35.137462499911805
35.121488374654945
65.81876079228131
65.26492510550804
64.71775790382577
64.1769398207521
63.642168684549546
63.11308916147165
62.589256032317536
62.07009711967477
61.554861443585864
61.042546557869514
60.53174714537071
60.02049335618953
59.50529791628542
58.979431295719856
58.32214442749882
57.669628854038876
57.023134401627075
56.380068868386935
55.738903963371556
55.09846772522103
54.45785666512147
53.8164071207282
53.1737179013152
41.88313633314967
37.79772939590721
36.59522948498543
36.19054499358494
36.06133793427147
36.004969817990755
35.94459142614116
35.77251344318081
35.31517356016402
35.292224059675874
35.26990263529025
35.248299658792114
35.22749651884838
35.2075638566149
35.18856030100894
35.17053167654554
35.15351057672483
35.137516174259254
65.8325250185965
65.27862901367692
64.7313551277415
64.1904347033094
63.65557381795931
63.12642357900629
62.602545692681076
62.083377099789246
61.56818185010959
61.05597775830051
60.545414111695216
60.03458312221473
59.520288372903586
58.9991181286795
58.3499361046444
57.703128422415844
57.059267740201655
56.417835433080086
55.77774907950076
55.13801073083297
54.49774762960179
53.85625700369636
53.21306544690677
41.86921367185457
37.81369237333855
36.61263503810104
36.209669641669095
36.080870513294705
36.024703221839054
35.964403137114026
35.79370799691549
35.333292295754795
35.3101698613676
35.28768641000218
35.265935713633354
35.24500191095521
35.22495759426083
35.20586260281064
35.18776340837015
35.17069289169096
35.15467031945596
65.84641745557592
65.29249052209896
64.74514710331188
64.20416197047135
63.6692567578973
63.14009267495178
62.61624275519963
62.097159296080406
61.58212962517922
61.07020902623123
60.56012081328557
60.05006822918905
59.53747051724414
59.020367239502335
58.377113741412366
57.73533165534636
57.09524164838543
56.45654054169024
55.818542264161955
55.18038563884135
54.541193166765595
53.90016123318662
53.25666322836208
41.83053019520669
37.8284603919316
36.63026777618403
36.23054904805498
36.10248373373774
36.04670244807843
35.98655569497936
35.81831963975233
35.35305630689964
35.32965695237265
35.30691470088801
35.284929377064685
35.26378980129625
35.24357166646781
35.224336555358946
35.20613174295474
35.18899037496648
35.172931744970924
65.86045382863762
65.30651376299225
64.75913277203274
64.21811927053433
63.68321385719912
63.154091393363146
62.6303402858061
62.11143377558477
61.59669053436007
61.08521743808974
60.57582615949413
60.066899563098055
59.55641389556454
59.04301330716918
58.40490408465999
57.76788992696417
57.131947531389
56.496765126498026
55.86174619333623
55.226073789062625
54.58878861897116
53.94888515694956
53.30545231145153
41.76623375118358
37.84247041893504
36.648008650661694
36.25322821575541
36.12616820063893
36.07097846042546
36.01103166431059
35.8463859835522
35.37445649794331
35.35066913767101
35.32756498853898
35.30525340009441
35.28382995651926
35.26337425866853
35.24394968405714
35.225604039803116
35.208370416930016
35.19226789267506
65.87464292222184
65.32070211217132
64.7733107149495
64.23230317043598
63.69744001846028
63.16841271361496
62.64482865815294
62.126186970319424
61.611844975479016
61.10097160775289
60.592482656382636
60.08497042900195
59.576838325078675
59.066990975958596
58.43378380476199
57.80152474759436
57.170052557814536
56.539012133899085
55.90781410425568
55.2756099416232
54.64128254965413
54.003487930343816
53.36082105236408
41.675101293595766
37.85635710406207
36.66568048337225
36.27777359876971
36.1519082621922
36.09754655197985
36.03780487784068
35.87795885976738
35.39748017913142
35.37318185962804
35.34960268613229
35.32686653138596
35.30507754299089
35.28431907410192
35.2646553639439
35.24613387534684
35.228786887245256
35.21263278517856
65.88898937639821
65.33505731243953
64.78767883067441
64.24670917259768
63.71192871797633
63.183047733247534
62.659695727610405
62.14140194293713
61.627568373334604
61.11743409345667
60.61003104042938
60.10416171686928
59.5985489481356
59.09223572083672
58.46393340966628
57.83656463537292
57.209906556516536
56.58359251730289
55.95705345346831
55.329438991023814
54.699459573691946
54.065292638127524
53.424696342845444
41.55549310263827
37.87097709835364
36.68303677765114
36.30427757895181
36.179680231892746
36.12642726128978
36.0668396469655
35.91310475860078
35.42211224648119
35.397159507628274
35.3729771269204
35.34971012438887
35.32747128742932
35.30634421229083
35.286392380065436
35.26766101940521
35.25018032621479
35.2339672822578
65.90349496616126
65.34957936573186
64.8022340680512
64.26133170459849
63.72667205079163
63.19798577296877
62.674927035988155
62.157058677015826
61.643831982892024
61.134562067908284
60.62840345394442
60.12435704054914
59.621393972508194
59.11866584117414
58.49538359771946
57.87310788372962
57.251613069572
56.63057205493938
56.00950197950399
55.387670336307735
54.763903120234744
54.1357729466304
53.49969821081505
41.405282405935395
37.88744419884552
36.699745903004064
36.332864769474305
36.20944989135258
36.157647621419365
36.098089784268424
35.951905100314306
35.448337838331305
35.4225475031789
35.39761046305214
35.373705924962934
35.35093073673296
35.32937112996244
35.3090847751697
35.29011173444709
35.27247844538164
35.25619963807634
65.91815928111362
65.36426663713742
64.8169722880793
64.27616410347584
63.741660789715404
63.21321450247479
62.690506031025066
62.1731344559104
61.6606036097091
61.15230825986222
60.64752718437783
60.14544568508648
59.64524208922096
59.14618117962604
58.52807238667709
57.91110115074389
57.29508071814059
56.67977048511423
56.06484808109591
55.449859312793535
54.8340865529808
54.21643196338637
53.5894014951236
41.22174711053448
37.907179614356004
36.71536916736616
36.36370067787434
36.241169098462706
36.19124271995053
36.131497790765465
35.99445490307702
35.47615182010506
35.44919603865965
35.42341509250548
35.39874632441997
35.37535396880288
35.35330436256389
35.33264239810584
35.31339961160396
35.295597060380906
35.279246455978694
65.93298014476962
65.37911600860097
64.83188822152846
64.29119861563066
63.75688445547446
63.22872008096191
62.70641430516763
62.1896042758936
61.677848296520914
61.17062214301667
60.667327215229484
60.16732166786979
59.669970968807554
59.17466628908598
58.56187863129099
57.950391394382876
57.34007781012609
56.730807537406314
56.12245758680216
55.514939599493346
54.908260751515506
54.30264713320267
38.092365442363985
38.092365442363985
38.092365442363985
38.092365442363985
38.092365442363985
38.092365442363985
38.092365442363985
38.092365442363985
38.092365442363985
38.092365442363985
35.47718403374088
35.45022047958176
35.42469024775134
35.4006178281502
35.37803310466452
35.35696253188637
35.33742708333784
35.319441508808126
35.30301407219448
66.23619694015096
65.6833910469024
65.13888982637792
64.6027479225182
64.07505657729621
63.555952355993796
63.04563150703668
62.54437106760298
62.0525580940685
61.57072869718324
61.099618473442526
60.6402261289026
60.19389717721738
59.76245004074314
59.239184118786596
58.71988779674471
58.205058891405216
57.69522419046575
57.19094366854471
56.692810803724164
56.20144427216274
55.71746293848517
38.092365442363985
38.092365442363985
38.092365442363985
38.092365442363985
38.092365442363985
38.092365442363985
38.092365442363985
38.092365442363985
38.092365442363985
38.092365442363985
36.009723046106586
35.96622346600663
35.926643162859186
35.89086680090265
35.85879666087514
35.83035352080357
35.80547600118428
35.78411983890123
35.76625730209506
66.52565381530358
65.97358893093556
65.43082962091275
64.89741646543787
64.37341163781484
63.858897749637194
63.3539752358398
62.858757377438046
62.373361585659616
61.89789491365666
61.43243095850823
60.97697408862347
60.53140385461109
60.0953854833544
59.561323374927355
59.02952881618038
58.49983544769936
57.97205604952499
57.445976908520386
56.921352743404334
56.397903383511625
55.875314357224184
38.092365442363985
38.092365442363985
38.092365442363985
38.092365442363985
38.092365442363985
38.092365442363985
38.092365442363985
38.092365442363985
38.092365442363985
38.092365442363985
36.15017264618768
36.116463384112905
36.084934206601346
36.055649477384335
36.02866108394211
36.00400927582968
35.98172369025535
35.96182418857148
35.94432146172482
66.75749177051594
66.20562918703301
65.66308409884638
65.12986523542023
64.60598113208215
64.0914388832261
63.586242569308624
63.09039156182666
62.60387910578881
62.12669190342156
61.65881191778638
61.2002224329273
60.75092206752789
60.31095377848212
59.77219916042656
59.235969129738535
58.70230468203613
58.17125522517699
57.64288150754586
57.117258654502976
56.59447905298854
56.074654557574654
38.092365442363985
38.092365442363985
38.092365442363985
38.092365442363985
38.092365442363985
38.092365442363985
38.092365442363985
38.092365442363985
38.092365442363985
38.092365442363985
36.20236802801754
36.16832603252397
36.13669470903452
36.10745055249891
36.080574739962344
36.05605246149445
36.033872302510154
36.01402576611748
35.99650693684393
66.9256897851227
66.37387158018518
65.83118092877949
65.2976226737403
64.77319996414923
64.25791440160664
63.75176627454506
63.25475489743233
62.76687903210674
62.28813727873557
61.818528153641466
61.35804924595043
60.90669416190842
60.46444456978505
59.922630767217335
59.38324856622812
58.84628503926175
58.31172424044243
57.77954603153533
57.24972477812961
56.72222795621972
56.1970147803625
38.092365442363985
38.092365442363985
38.092365442363985
38.092365442363985
38.092365442363985
38.092365442363985
38.092365442363985
38.092365442363985
38.092365442363985
38.092365442363985
36.21786487920496
36.18453417138946
36.15345484368118
36.12463268018891
36.098071567971324
36.07377382122498
36.05174045529499
36.03197139287216
36.014465606742924
67.03831947432197
66.48652276919013
65.94371101810688
65.40988931509978
64.88506120627656
64.36922866775546
63.862392058537225
63.36455003191179
62.87569939255176
62.39583490321745
61.9249490878347
61.46303217699025
61.010072574669024
60.56605873659777
60.02196236802164
59.480293805204575
58.94105358892727
58.404243147280816
57.86986521469618
57.33792432144834
56.80842735487878
56.28138417582082
38.092365442363985
38.092365442363985
38.092365442363985
38.092365442363985
38.092365442363985
38.092365442363985
38.092365442363985
38.092365442363985
38.092365442363985
38.092365442363985
36.223158778042624
36.18986442538407
36.158836564249505
36.13007091518908
36.10356376398573
36.079311827475955
36.05731214564578
36.0375620021433
36.02005887007643
67.10290187494935
66.55111646350113
66.00823208539909
65.47425374485447
64.94918489207228
64.43302742167333
63.92578167624968
63.42744646158331
62.9380190816768
62.45749540090419
61.98586993285604
61.523135929465425
61.06928537034095
60.62430857060126
60.07896726526129
59.53604300526543
58.99553345112644
58.457435911210894
57.92174719325616
57.388463422471084
56.8575798207468
56.32909044563383
38.092365442363985
38.092365442363985
38.092365442363985
38.092365442363985
38.092365442363985
38.092365442363985
38.092365442363985
38.092365442363985
38.092365442363985
38.092365442363985
36.224759383505855
36.19152207479131
36.16053760673182
36.13180464446398
36.105321604416176
36.08108670835383
36.05909802522456
36.0393535013476
36.021850980689294
67.12393528061793
66.57215338678164
66.02924489505887
65.49521484655214
64.97006677481535
64.45380271173593
63.946423194275866
63.44792726890221
62.95831248883075
62.477574897951335
62.00570899676434
61.542707696263484
61.08856230291064
60.64326267967985
60.097502267790844
59.554156367482435
59.01322352354775
58.474702390614404
57.93859181884434
57.40489096203849
56.87359941323606
56.34471737136172
38.092365442363985
38.092365442363985
38.092365442363985
38.092365442363985
38.092365442363985
38.092365442363985
38.092365442363985
38.092365442363985
38.092365442363985
38.092365442363985
36.225133714179194
36.191898910503525
36.16091875823688
36.132190773103105
36.105712563073894
36.08148179476238
36.05949616798473
36.03975339767263
36.02225120187239
67.1029018749497
66.55111646350149
66.00823208539943
65.47425374485478
64.94918489207254
64.43302742167353
63.9257816762499
63.427446461583564
62.93801908167707
62.457495400904506
61.98586993285635
61.523135929465745
61.069285370341284
60.62430857060161
60.07896726526167
59.536043005265796
58.99553345112679
58.457435911211206
57.92174719325646
57.38846342247136
56.857579820747084
56.32909044563413
38.092365442363985
38.092365442363985
38.092365442363985
38.092365442363985
38.092365442363985
38.092365442363985
38.092365442363985
38.092365442363985
38.092365442363985
38.092365442363985
36.2247593835062
36.19152207479167
36.160537606732184
36.13180464446435
36.105321604416545
36.08108670835421
36.05909802522494
36.03935350134798
36.02185098068968
67.03831947432256
66.48652276919073
65.94371101810748
65.40988931510036
64.88506120627713
64.36922866775602
63.86239205853773
63.36455003191228
62.87569939255223
62.39583490321792
61.92494908783517
61.46303217699073
61.01007257466952
60.566058736598265
60.02196236802213
59.480293805205044
58.94105358892774
58.404243147281285
57.86986521469666
57.33792432144883
56.80842735487927
56.281384175821294
38.092365442363985
38.092365442363985
38.092365442363985
38.092365442363985
38.092365442363985
38.092365442363985
38.092365442363985
38.092365442363985
38.092365442363985
38.092365442363985
36.22315877804348
36.18986442538493
36.158836564250386
36.13007091518998
36.10356376398663
36.07931182747685
36.05731214564669
36.03756200214421
36.02005887007736
66.9256897851231
66.37387158018556
65.83118092877984
65.29762267374065
64.77319996414955
64.25791440160694
63.751766274545346
63.25475489743258
62.76687903210699
62.28813727873583
61.81852815364176
61.35804924595073
60.90669416190875
60.46444456978539
59.92263076721769
59.383248566228495
58.846285039262106
58.311724240442764
57.779546031535574
57.2497247781298
56.722227956219875
56.19701478036264
38.092365442363985
38.092365442363985
38.092365442363985
38.092365442363985
38.092365442363985
38.092365442363985
38.092365442363985
38.092365442363985
38.092365442363985
38.092365442363985
36.21786487920707
36.18453417139163
36.15345484368339
36.12463268019112
36.09807156797353
36.07377382122716
36.05174045529711
36.03197139287423
36.01446560674499
66.75749177051621
66.20562918703328
65.66308409884668
65.12986523542055
64.60598113208248
64.09143888322645
63.58624256930897
63.09039156182701
62.60387910578917
62.12669190342191
61.658811917786714
61.2002224329276
60.75092206752817
60.3109537784824
59.77219916042682
59.23596912973876
58.70230468203637
58.171255225177255
57.6428815075462
57.117258654503345
56.59447905298891
56.07465455757502
38.092365442363985
38.092365442363985
38.092365442363985
38.092365442363985
38.092365442363985
38.092365442363985
38.092365442363985
38.092365442363985
38.092365442363985
38.092365442363985
36.20236802801922
36.168326032525684
36.13669470903627
36.1074505525007
36.08057473996418
36.05605246149631
36.03387230251203
36.01402576611939
35.99650693684584
66.52565381530336
65.97358893093534
65.43082962091252
64.89741646543762
64.37341163781458
63.85889774963699
63.35397523583959
62.858757377437826
62.3733615856594
61.89789491365648
61.43243095850813
60.97697408862341
60.531403854611014
60.09538548335435
59.56132337492731
59.02952881618034
58.49983544769931
57.97205604952496
57.4459769085203
56.921352743404235
56.397903383511505
55.87531435722402
38.092365442363985
38.092365442363985
38.092365442363985
38.092365442363985
38.092365442363985
38.092365442363985
38.092365442363985
38.092365442363985
38.092365442363985
38.092365442363985
36.15017264618895
36.1164633841142
36.08493420660264
36.05564947738562
36.0286610839434
36.00400927583098
35.98172369025663
35.961824188572734
35.94432146172608
66.23619694015046
65.68339104690192
65.13888982637744
64.60274792251775
64.07505657729575
63.555952355993355
63.04563150703628
62.5443710676026
62.052558094068125
61.5707286971829
61.09961847344225
60.64022612890238
60.19389717721718
59.762450040742955
59.23918411878643
58.71988779674456
58.20505889140509
57.6952241904656
57.19094366854458
56.69281080372401
56.201444272162576
55.717462938485006
38.092365442363985
38.092365442363985
38.092365442363985
38.092365442363985
38.092365442363985
38.092365442363985
38.092365442363985
38.092365442363985
38.092365442363985
38.092365442363985
36.009723046107446
35.96622346600751
35.9266431628601
35.89086680090359
35.85879666087609
35.83035352080452
35.80547600118525
35.784119838902214
35.766257302096044
65.93298014476896
65.37911600860033
64.8318882215279
64.29119861563018
63.75688445547409
63.228720080961615
62.70641430516736
62.18960427589334
61.67784829652065
61.170622143016416
60.6673272152292
60.1673216678695
59.66997096880729
59.174666289085756
58.56187863129085
57.95039139438281
57.34007781012609
56.73080753740643
56.12245758680233
55.514939599493566
54.908260751515755
54.30264713320292
38.092365442363985
38.092365442363985
38.092365442363985
38.092365442363985
38.092365442363985
38.092365442363985
38.092365442363985
38.092365442363985
38.092365442363985
38.092365442363985
35.47718403374184
35.450220479582754
35.42469024775235
35.40061782815123
35.37803310466557
35.35696253188742
35.33742708333888
35.31944150880914
35.3030140721955
65.91815928111286
65.36426663713681
64.81697228807877
64.27616410347535
63.741660789715034
63.21321450247453
62.69050603102481
62.17313445591012
61.66060360970887
61.152308259861954
60.64752718437756
60.14544568508612
59.645242089220645
59.146181179625835
58.52807238667696
57.91110115074384
57.29508071814064
56.67977048511432
56.0648480810961
55.44985931279377
54.83408655298101
54.21643196338662
53.58940149512384
41.221747110535546
37.907179614355925
36.71536916736614
36.363700677875016
36.24116909846288
36.19124271995084
36.131497790765906
35.99445490307653
35.476151820105976
35.44919603866061
35.423415092506474
35.39874632442097
35.37535396880389
35.3533043625649
35.33264239810684
35.313399611604964
35.29559706038193
35.279246455979695
65.90349496616057
65.34957936573117
64.8022340680507
64.26133170459802
63.72667205079126
63.197985772968536
62.67492703598791
62.15705867701547
61.643831982891804
61.13456206790809
60.62840345394413
60.12435704054878
59.62139397250788
59.11866584117397
58.49538359771935
57.87310788372957
57.251613069572
56.630572054939464
56.009501979504186
55.38767033630794
54.76390312023498
54.13577294663068
53.49969821081531
41.40528240593647
37.88744419884548
36.69974590300409
36.332864769474995
36.209449891352776
36.1576476214197
36.098089784268915
35.951905100313766
35.44833783833224
35.42254750317985
35.39761046305311
35.373705924963915
35.35093073673394
35.32937112996343
35.30908477517068
35.29011173444807
35.27247844538263
35.25619963807731
65.88898937639743
65.33505731243885
64.7876788306739
64.24670917259718
63.71192871797598
63.183047733247236
62.65969572761013
62.14140194293675
61.62756837333437
61.11743409345645
60.61003104042913
60.10416171686893
59.598548948135324
59.09223572083652
58.463933409666176
57.83656463537284
57.20990655651653
56.583592517302954
55.95705345346849
55.32943899102405
54.699459573692174
54.06529263812781
53.424696342845714
41.55549310263937
37.87097709835365