# vtk DataFile Version 2.0
Niestacjonarne zagadnienie cieplne - ogrzewanie wody w garnku stalowym
ASCII
DATASET UNSTRUCTURED_GRID
POINTS 1353 float
0.0 0.0 0.0
0.0 0.0015384615384615385 0.0
0.0 0.003076923076923077 0.0
0.0 0.004615384615384615 0.0
0.0 0.006153846153846154 0.0
0.0 0.007692307692307693 0.0
0.0 0.00923076923076923 0.0
0.0 0.010769230769230769 0.0
0.0 0.012307692307692308 0.0
0.0 0.013846153846153847 0.0
0.0 0.015384615384615385 0.0
0.0 0.016923076923076923 0.0
0.0 0.01846153846153846 0.0
0.0 0.02 0.0
0.0 0.020555555555555556 0.0
0.0 0.021111111111111112 0.0
0.0 0.021666666666666667 0.0
0.0 0.022222222222222223 0.0
0.0 0.02277777777777778 0.0
0.0 0.023333333333333334 0.0
0.0 0.02388888888888889 0.0
0.0 0.024444444444444446 0.0
0.0 0.025 0.0
0.0 0.036111111111111115 0.0
0.0 0.04722222222222222 0.0
0.0 0.058333333333333334 0.0
0.0 0.06944444444444445 0.0
0.0 0.08055555555555556 0.0
0.0 0.09166666666666667 0.0
0.0 0.10277777777777777 0.0
0.0 0.1138888888888889 0.0
0.0 0.125 0.0
0.0 0.12555555555555556 0.0
0.0 0.12611111111111112 0.0
0.0 0.12666666666666668 0.0
0.0 0.1272222222222222 0.0
0.0 0.12777777777777777 0.0
0.0 0.12833333333333333 0.0
0.0 0.1288888888888889 0.0
0.0 0.12944444444444445 0.0
0.0 0.13 0.0
5.555555555555556E-4 0.0 0.0
5.555555555555556E-4 0.0015384615384615385 0.0
5.555555555555556E-4 0.003076923076923077 0.0
5.555555555555556E-4 0.004615384615384615 0.0
5.555555555555556E-4 0.006153846153846154 0.0
5.555555555555556E-4 0.007692307692307693 0.0
5.555555555555556E-4 0.00923076923076923 0.0
5.555555555555556E-4 0.010769230769230769 0.0
5.555555555555556E-4 0.012307692307692308 0.0
5.555555555555556E-4 0.013846153846153847 0.0
5.555555555555556E-4 0.015384615384615385 0.0
5.555555555555556E-4 0.016923076923076923 0.0
5.555555555555556E-4 0.01846153846153846 0.0
5.555555555555556E-4 0.02 0.0
5.555555555555556E-4 0.020555555555555556 0.0
5.555555555555556E-4 0.021111111111111112 0.0
5.555555555555556E-4 0.021666666666666667 0.0
5.555555555555556E-4 0.022222222222222223 0.0
5.555555555555556E-4 0.02277777777777778 0.0
5.555555555555556E-4 0.023333333333333334 0.0
5.555555555555556E-4 0.02388888888888889 0.0
5.555555555555556E-4 0.024444444444444446 0.0
5.555555555555556E-4 0.025 0.0
5.555555555555556E-4 0.036111111111111115 0.0
5.555555555555556E-4 0.04722222222222222 0.0
5.555555555555556E-4 0.058333333333333334 0.0
5.555555555555556E-4 0.06944444444444445 0.0
5.555555555555556E-4 0.08055555555555556 0.0
5.555555555555556E-4 0.09166666666666667 0.0
5.555555555555556E-4 0.10277777777777777 0.0
5.555555555555556E-4 0.1138888888888889 0.0
5.555555555555556E-4 0.125 0.0
5.555555555555556E-4 0.12555555555555556 0.0
5.555555555555556E-4 0.12611111111111112 0.0
5.555555555555556E-4 0.12666666666666668 0.0
5.555555555555556E-4 0.1272222222222222 0.0
5.555555555555556E-4 0.12777777777777777 0.0
5.555555555555556E-4 0.12833333333333333 0.0
5.555555555555556E-4 0.1288888888888889 0.0
5.555555555555556E-4 0.12944444444444445 0.0
5.555555555555556E-4 0.13 0.0
0.0011111111111111111 0.0 0.0
0.0011111111111111111 0.0015384615384615385 0.0
0.0011111111111111111 0.003076923076923077 0.0
0.0011111111111111111 0.004615384615384615 0.0
0.0011111111111111111 0.006153846153846154 0.0
0.0011111111111111111 0.007692307692307693 0.0
0.0011111111111111111 0.00923076923076923 0.0
0.0011111111111111111 0.010769230769230769 0.0
0.0011111111111111111 0.012307692307692308 0.0
0.0011111111111111111 0.013846153846153847 0.0
0.0011111111111111111 0.015384615384615385 0.0
0.0011111111111111111 0.016923076923076923 0.0
0.0011111111111111111 0.01846153846153846 0.0
0.0011111111111111111 0.02 0.0
0.0011111111111111111 0.020555555555555556 0.0
0.0011111111111111111 0.021111111111111112 0.0
0.0011111111111111111 0.021666666666666667 0.0
0.0011111111111111111 0.022222222222222223 0.0
0.0011111111111111111 0.02277777777777778 0.0
0.0011111111111111111 0.023333333333333334 0.0
0.0011111111111111111 0.02388888888888889 0.0
0.0011111111111111111 0.024444444444444446 0.0
0.0011111111111111111 0.025 0.0
0.0011111111111111111 0.036111111111111115 0.0
0.0011111111111111111 0.04722222222222222 0.0
0.0011111111111111111 0.058333333333333334 0.0
0.0011111111111111111 0.06944444444444445 0.0
0.0011111111111111111 0.08055555555555556 0.0
0.0011111111111111111 0.09166666666666667 0.0
0.0011111111111111111 0.10277777777777777 0.0
0.0011111111111111111 0.1138888888888889 0.0
0.0011111111111111111 0.125 0.0
0.0011111111111111111 0.12555555555555556 0.0
0.0011111111111111111 0.12611111111111112 0.0
0.0011111111111111111 0.12666666666666668 0.0
0.0011111111111111111 0.1272222222222222 0.0
0.0011111111111111111 0.12777777777777777 0.0
0.0011111111111111111 0.12833333333333333 0.0
0.0011111111111111111 0.1288888888888889 0.0
0.0011111111111111111 0.12944444444444445 0.0
0.0011111111111111111 0.13 0.0
0.0016666666666666666 0.0 0.0
0.0016666666666666666 0.0015384615384615385 0.0
0.0016666666666666666 0.003076923076923077 0.0
0.0016666666666666666 0.004615384615384615 0.0
0.0016666666666666666 0.006153846153846154 0.0
0.0016666666666666666 0.007692307692307693 0.0
0.0016666666666666666 0.00923076923076923 0.0
0.0016666666666666666 0.010769230769230769 0.0
0.0016666666666666666 0.012307692307692308 0.0
0.0016666666666666666 0.013846153846153847 0.0
0.0016666666666666666 0.015384615384615385 0.0
0.0016666666666666666 0.016923076923076923 0.0
0.0016666666666666666 0.01846153846153846 0.0
0.0016666666666666666 0.02 0.0
0.0016666666666666666 0.020555555555555556 0.0
0.0016666666666666666 0.021111111111111112 0.0
0.0016666666666666666 0.021666666666666667 0.0
0.0016666666666666666 0.022222222222222223 0.0
0.0016666666666666666 0.02277777777777778 0.0
0.0016666666666666666 0.023333333333333334 0.0
0.0016666666666666666 0.02388888888888889 0.0
0.0016666666666666666 0.024444444444444446 0.0
0.0016666666666666666 0.025 0.0
0.0016666666666666666 0.036111111111111115 0.0
0.0016666666666666666 0.04722222222222222 0.0
0.0016666666666666666 0.058333333333333334 0.0
0.0016666666666666666 0.06944444444444445 0.0
0.0016666666666666666 0.08055555555555556 0.0
0.0016666666666666666 0.09166666666666667 0.0
0.0016666666666666666 0.10277777777777777 0.0
0.0016666666666666666 0.1138888888888889 0.0
0.0016666666666666666 0.125 0.0
0.0016666666666666666 0.12555555555555556 0.0
0.0016666666666666666 0.12611111111111112 0.0
0.0016666666666666666 0.12666666666666668 0.0
0.0016666666666666666 0.1272222222222222 0.0
0.0016666666666666666 0.12777777777777777 0.0
0.0016666666666666666 0.12833333333333333 0.0
0.0016666666666666666 0.1288888888888889 0.0
0.0016666666666666666 0.12944444444444445 0.0
0.0016666666666666666 0.13 0.0
0.0022222222222222222 0.0 0.0
0.0022222222222222222 0.0015384615384615385 0.0
0.0022222222222222222 0.003076923076923077 0.0
0.0022222222222222222 0.004615384615384615 0.0
0.0022222222222222222 0.006153846153846154 0.0
0.0022222222222222222 0.007692307692307693 0.0
0.0022222222222222222 0.00923076923076923 0.0
0.0022222222222222222 0.010769230769230769 0.0
0.0022222222222222222 0.012307692307692308 0.0
0.0022222222222222222 0.013846153846153847 0.0
0.0022222222222222222 0.015384615384615385 0.0
0.0022222222222222222 0.016923076923076923 0.0
0.0022222222222222222 0.01846153846153846 0.0
0.0022222222222222222 0.02 0.0
0.0022222222222222222 0.020555555555555556 0.0
0.0022222222222222222 0.021111111111111112 0.0
0.0022222222222222222 0.021666666666666667 0.0
0.0022222222222222222 0.022222222222222223 0.0
0.0022222222222222222 0.02277777777777778 0.0
0.0022222222222222222 0.023333333333333334 0.0
0.0022222222222222222 0.02388888888888889 0.0
0.0022222222222222222 0.024444444444444446 0.0
0.0022222222222222222 0.025 0.0
0.0022222222222222222 0.036111111111111115 0.0
0.0022222222222222222 0.04722222222222222 0.0
0.0022222222222222222 0.058333333333333334 0.0
0.0022222222222222222 0.06944444444444445 0.0
0.0022222222222222222 0.08055555555555556 0.0
0.0022222222222222222 0.09166666666666667 0.0
0.0022222222222222222 0.10277777777777777 0.0
0.0022222222222222222 0.1138888888888889 0.0
0.0022222222222222222 0.125 0.0
0.0022222222222222222 0.12555555555555556 0.0
0.0022222222222222222 0.12611111111111112 0.0
0.0022222222222222222 0.12666666666666668 0.0
0.0022222222222222222 0.1272222222222222 0.0
0.0022222222222222222 0.12777777777777777 0.0
0.0022222222222222222 0.12833333333333333 0.0
0.0022222222222222222 0.1288888888888889 0.0
0.0022222222222222222 0.12944444444444445 0.0
0.0022222222222222222 0.13 0.0
0.002777777777777778 0.0 0.0
0.002777777777777778 0.0015384615384615385 0.0
0.002777777777777778 0.003076923076923077 0.0
0.002777777777777778 0.004615384615384615 0.0
0.002777777777777778 0.006153846153846154 0.0
0.002777777777777778 0.007692307692307693 0.0
0.002777777777777778 0.00923076923076923 0.0
0.002777777777777778 0.010769230769230769 0.0
0.002777777777777778 0.012307692307692308 0.0
0.002777777777777778 0.013846153846153847 0.0
0.002777777777777778 0.015384615384615385 0.0
0.002777777777777778 0.016923076923076923 0.0
0.002777777777777778 0.01846153846153846 0.0
0.002777777777777778 0.02 0.0
0.002777777777777778 0.020555555555555556 0.0
0.002777777777777778 0.021111111111111112 0.0
0.002777777777777778 0.021666666666666667 0.0
0.002777777777777778 0.022222222222222223 0.0
0.002777777777777778 0.02277777777777778 0.0
0.002777777777777778 0.023333333333333334 0.0
0.002777777777777778 0.02388888888888889 0.0
0.002777777777777778 0.024444444444444446 0.0
0.002777777777777778 0.025 0.0
0.002777777777777778 0.036111111111111115 0.0
0.002777777777777778 0.04722222222222222 0.0
0.002777777777777778 0.058333333333333334 0.0
0.002777777777777778 0.06944444444444445 0.0
0.002777777777777778 0.08055555555555556 0.0
0.002777777777777778 0.09166666666666667 0.0
0.002777777777777778 0.10277777777777777 0.0
0.002777777777777778 0.1138888888888889 0.0
0.002777777777777778 0.125 0.0
0.002777777777777778 0.12555555555555556 0.0
0.002777777777777778 0.12611111111111112 0.0
[...]
POINT_DATA 1353
SCALARS Temperatura float 1
LOOKUP_TABLE default
99.69931874163461
99.17273602063064
98.65123965446061
98.13444863492049
97.62200985165387
97.1134888623532
96.60832868250594
96.1057974476003
95.60491793044372
95.10433328859173
94.602163256199
94.09522227627794
93.5796569265182
93.03383744598746
92.32359814977576
91.65298294076631
90.99471702793191
90.34403343533288
89.69796082720997
89.05458361921642
88.41252126632382
87.77078062610924
87.12871527159751
75.92371334619318
71.85734475336001
70.66101083691326
70.25632827247205
70.12164825334544
70.04598730636883
69.92766333133244
69.55913430445294
68.56243452932735
68.50759304994618
68.45324277446353
68.39945579967655
68.34628995607487
68.2937912471407
68.24199571479228
68.19093062413927
68.14061506222006
68.09106015016526
99.72307086709662
99.19637878893657
98.67474624220168
98.15782461320713
97.64526130209055
97.13662499526188
96.63136140815267
96.12874382857466
95.62779849376423
95.12719681688402
94.62500916759957
94.11845239748975
93.60216582010757
93.06501314343599
92.3891158899783
91.72141636818452
91.0647325881262
90.41467921048778
89.76885329520216
89.12548947666252
88.48326346748108
87.84119275720036
87.1986219658257
75.96876628779432
71.90938582635808
70.71276026017122
70.30836181721185
70.17373553672394
70.09811437870364
69.97976842890324
69.61189234129711
68.61276309677169
68.5578205986648
68.50337832025984
68.44950700018303
68.39626324583678
68.34369215983656
68.29182925004098
68.24070154874613
68.19032809423713
68.1407200285551
99.74691914326898
99.22017659105592
98.69845040580724
98.18144311180716
97.66881117250094
97.16013108433718
96.65485784763334
96.15227765653354
95.65143960889465
95.1510460262898
94.64926012024848
94.14340278306284
93.62864397650488
93.10011141715495
92.43924969203866
91.78210317324199
91.13021457018506
90.4830956626819
89.83920707427838
89.19715733732515
88.55574896999454
87.91401370377336
87.27125693658687
75.98938396699901
71.95954436123968
70.76438486161166
70.3616977530508
70.22749786116938
70.1521559178984
70.03397605192522
69.66883494415377
68.66443006134953
68.60929800256433
68.55469235572669
68.50067930010238
68.44731146292156
68.39463112092122
68.3426721958182
68.29146110290914
68.24101682033657
68.19135061116067
99.77089277853216
99.24413030161892
98.72235120167284
98.20530214182621
97.69265647885217
97.18400307959519
96.67881204903978
96.1763914082099
95.67582503545336
95.17587369811154
94.6748235227544
94.17018222993462
93.65825215457512
93.13689210434669
92.48653825031546
91.83819598110678
91.19274941366727
90.55013048492387
89.9095843053104
89.27005208329467
88.63044514792743
87.98976295541989
87.34720279210353
75.98505289352063
72.00807454742856
70.81581607437788
70.41636226859941
70.28292946247558
70.20812172038417
70.09026545242072
69.73000748834001
68.7174063099099
68.66200071877519
68.60716526827582
68.55295726424347
68.49942200600583
68.44659699655308
68.39451387579403
68.34319853562201
68.29267028510547
68.24294085522368
99.7950067431916
99.26824326917951
98.74644669839073
98.22939831033938
97.71679225287717
97.20823412703592
96.70321452195016
96.2010710993238
95.70093422691804
95.20164504719332
94.70163319683655
94.19871336339732
93.69019770176351
93.17504962223781
92.53329230198318
91.89280368356863
91.25400791133096
90.61683435902276
89.98074070001772
89.34484667751217
88.70807639861384
88.06929316547705
87.42745692445786
75.9549164034944
72.05541148091392
70.86693492971537
70.47240006330807
70.34001875155262
70.26602743725613
70.14859972496502
69.79548406470174
68.771640434224
68.7158866730701
68.66076461146969
68.6063161094265
68.55257479098911
68.49957166772197
68.44733635691988
68.39589533558618
68.34526937702371
68.29547142189276
99.81926877463724
99.29251778336271
98.77073426816416
98.25372674624083
97.74121157458961
97.2328147499043
96.7280521246858
96.22629776154561
95.7267389889024
95.22831261122582
94.72961533931631
94.2288163582301
93.72397897555982
93.21448849702682
92.58044309762646
91.94732215007022
91.31527499482952
90.6841466199208
90.05343474264458
89.42229068023366
88.78954390524875
88.15377142741009
87.51348103598038
75.89774643562836
72.1021870435516
70.91756461880107
70.52987737030975
70.39874699739642
70.32589554980471
70.20892443000434
69.86536954110004
68.82705543558784
68.7708962109134
68.7154475639162
68.66072518658379
68.60674520294948
68.55353179978884
68.50111506750706
68.44952513854778
68.39878637121913
68.34891410961642
99.84368218365113
99.31695420872771
98.79521027833576
98.27828113571628
97.76590562865928
97.25773297803707
96.7533083467668
96.25204787460856
95.75320411953027
95.25582064968377
94.7586782241738
94.26029375111521
93.75926444633589
93.25513456359366
92.62839752784097
92.00245429163168
91.3773013234454
90.75272767506661
90.12824951271915
89.50304027493621
88.87579218128742
88.24463986643819
87.60728792418622
75.81189862914779
72.1492539820911
70.96745936767292
70.5888864744862
70.4590863551217
70.3877568216044
70.27116554664343
69.93980273116094
68.88354325560097
68.82695295528288
68.7711670682077
68.7161549651982
68.6619093890206
68.60845082999327
68.55581907249969
68.50405313458275
68.45318395427252
68.40323077317888
99.86824714580737
99.34155089004425
98.81986984058742
98.3030537354686
97.79086378689135
97.28297451370648
96.77896363641132
96.27829382582038
95.78028879467304
95.28410623114414
94.78871790972038
94.29295874886581
93.7958129485895
93.29689951130062
92.6773146968184
92.05852408368744
91.44045756373417
90.82290476565527
90.20545392734358
89.58740001263051
88.96756043904212
88.34349470629233
87.71159188323061
75.69524271249628
72.1977208303629
71.01628868098932
70.64955208447594
70.52099708498915
70.45165233405292
70.33522658662551
70.01896110349143
68.94095578252394
68.88396859889959
68.82788311124398
68.77259633956925
68.71804922422794
68.66429986391803
68.6114102040013
68.5594345536508
68.50841349807843
68.45837155273176
99.89296139544585
99.3663042717675
98.84470669214078
98.32803538427089
97.81607370924146
97.30852292865809
96.80499574400798
96.30500451897369
95.8079477742332
95.31310078984603
94.8196249644471
94.32664037927131
93.83343019635896
93.33967613180839
92.72721104527831
92.11562384654663
91.50483656236011
90.8946929050727
90.28492436742383
89.67509840967047
89.06448831414353
88.45193792129453
87.83006816893757
75.54505445340396
72.24900208359645
71.06361543645653
70.71204011021901
70.5844237505156
70.51763618921329
70.40098489302129
70.10306666638705
68.99909408303145
68.94177603829071
68.88567488370195
68.83006750237851
68.77515306919948
68.72104530460874
68.66784019445366
68.61561189532055
68.56441246933802
68.51427235940108
99.91782066117253
99.39120906917844
98.86971317492386
98.35321553281743
97.84152145964165
97.33435988016205
96.83138009069208
96.33214603227708
95.83613252265594
95.34273211472066
94.85128890464048
94.3611811284702
93.87194569477532
93.38334064049381
92.77801583510467
92.17369976021745
91.57033842946421
90.96785938881156
90.36617751292198
89.76521832857624
89.16497572552734
88.56563336247626
73.47125960085822
73.47125960085822
73.47125960085822
73.47125960085822
73.47125960085822
73.47125960085822
73.47125960085822
73.47125960085822
73.47125960085822
73.47125960085822
69.00113518696462
68.94466388197341
68.88860692949181
68.8332062056407
68.77864182321957
68.72504541944029
68.67251090881956
68.62110111132176
68.57085178507918
100.4081256233683
99.88295969426292
99.36505561079375
98.85448317491601
98.35136115063206
97.85586863300978
97.36826332881206
96.8889079879167
96.4183063052063
95.9571493652128
95.50637242964075
95.06722080612201
94.64133138963462
94.230864561161
93.73407403029414
93.24120187041107
92.75283199119563
92.269585089732
91.79212518265163
91.32116215587412
90.85744577135475
90.40174297555015
73.47125960085822
73.47125960085822
73.47125960085822
73.47125960085822
73.47125960085822
73.47125960085822
73.47125960085822
73.47125960085822
73.47125960085822
73.47125960085822
70.13178555843626
70.0458110010277
69.96512009290012
69.88944913170799
69.81858784989473
69.75237214681566
69.69067836415341
69.6334194034843
69.58054218866435
100.85882753922861
100.33463204067354
99.81889024543364
99.31165085687037
98.81298974346409
98.32300820354827
97.84182931504156
97.36959124082632
96.90643583851993
96.45249029329254
96.007838886337
95.57248105240973
95.14626806179456
94.72880016267175
94.21701510963527
93.70709275088474
93.19883556770195
92.69202064851491
92.18639261372233
91.68165699987733
91.1774752252605
90.67346327900329
73.47125960085822
73.47125960085822
73.47125960085822
73.47125960085822
73.47125960085822
73.47125960085822
73.47125960085822
73.47125960085822
73.47125960085822
73.47125960085822
70.4400433045745
70.37382214045792
70.30931752935936
70.24666944621114
70.18598804052115
70.1273578548449
70.0708411098678
70.01648004505368
69.964298497439
101.21626439722469
100.69233764323359
100.17679935748913
99.66965743715316
99.17091933564234
98.68059053178827
98.19867261260667
97.72516124260866
97.26004452398995
96.8033026094059
96.35490993019506
95.91484222218904
95.48309248026015
95.05970443900492
94.54073152448618
94.02390549788163
93.50927349444162
92.99689276833942
92.48683426527865
91.97918638491964
91.47405870904768
90.97158519084637
73.47125960085822
73.47125960085822
73.47125960085822
73.47125960085822
73.47125960085822
73.47125960085822
73.47125960085822
73.47125960085822
73.47125960085822
73.47125960085822
70.55369557048158
70.48712900588087
70.42270771967952
70.3603860237899
70.30012877650871
70.24190934239446
70.18570802258361
70.1315109239037
70.07930919282217
101.4757878520965
100.9519257656358
100.43615189871569
99.92846937577477
99.42887907204154
98.93737979234419
98.45396855385422
97.97864098644824
97.51139181583916
97.05221529234353
96.60110524619385
96.15805410670127
95.7230494315118
95.29606472551752
94.77230974424418
94.25058214323488
93.73086599006446
93.21314176138384
92.69738492720849
92.18356436322026
91.67164061485737
91.16156411041315
73.47125960085822
73.47125960085822
73.47125960085822
73.47125960085822
73.47125960085822
73.47125960085822
73.47125960085822
73.47125960085822
73.47125960085822
73.47125960085822
70.58817083285747
70.52308313076595
70.45981331497381
70.39837592562365
70.33878141529111
70.2810369870914
70.22514723007492
70.17111457537091
70.11893960372312
101.6500161764965
101.12618693160226
100.61022445880364
100.10213220652464
99.60191158893552
99.10956195806264
98.62508054583579
98.14846235798568
97.67970000666456
97.21878348816296
96.76569995839417
96.32043366506001
95.88296646308997
95.45327996973363
94.92602704732276
94.4007894851033
93.87756721423834
93.35636123274612
92.83717410702553
92.32001056210022
91.8048781688093
91.29178811835101
73.47125960085822
73.47125960085822
73.47125960085822
73.47125960085822
73.47125960085822
73.47125960085822
73.47125960085822
73.47125960085822
73.47125960085822
73.47125960085822
70.59996753529407
70.53498617302017
70.47184845336368
70.41054836058981
70.35108110569844
70.29344280682442
70.23763025068524
70.18364072281724
70.13147189409327
101.7501211076986
101.22630937782586
100.71023437770413
100.20189947250759
99.70130601960373
99.20845336753086
98.72333886151495
98.24595786301182
97.7763037924246
97.3143682030903
96.86014088649192
96.41360998109376
95.97476197311784
95.54358125773363
95.01439590142103
94.48720927825035
93.96201808001405
93.43881859627838
92.91760653745234
92.3983768167342
91.88112328242929
91.36583839599126
73.47125960085822
73.47125960085822
73.47125960085822
73.47125960085822
73.47125960085822
73.47125960085822
73.47125960085822
73.47125960085822
73.47125960085822
73.47125960085822
70.60358855581615
70.53872963354611
70.47568599304526
70.41445754568167
70.35504371053776
70.29744353681234
70.24165579347078
70.18767903217645
70.13551162886668
101.78275883975066
101.25895261912457
100.74284035394385
100.23442546418788
99.73370942997235
99.24069179909958
98.75537019586127
98.2777403274391
97.80779598236536
97.34552901410508
96.8909293041338
96.44398470986134
96.00468104493221
95.57300226156731
95.04317054793589
94.5153332032043
93.98948796381478
93.46563270954086
92.9437655650391
92.42388502870074
91.905990135875
91.39008066227835
73.47125960085822
73.47125960085822
73.47125960085822
73.47125960085822
73.47125960085822
73.47125960085822
73.47125960085822
73.47125960085822
73.47125960085822
73.47125960085822
70.60443655440274
70.53958533000291
70.47655261127098
70.41533599387385
70.35593329274313
70.29834246770689
70.24256156972167
70.18858870351711
70.13642200315068
101.75012110769917
101.22630937782642
100.71023437770467
100.20189947250809
99.70130601960416
99.20845336753123
98.7233388615153
98.24595786301222
97.77630379242504
97.31436820309077
96.86014088649239
96.41360998109427
95.97476197311838
95.54358125773417
95.0143959014216
94.48720927825087
93.96201808001457
93.43881859627888
92.91760653745283
92.39837681673467
91.88112328242975
91.36583839599179
73.47125960085822
73.47125960085822
73.47125960085822
73.47125960085822
73.47125960085822
73.47125960085822
73.47125960085822
73.47125960085822
73.47125960085822
73.47125960085822
70.60358855581681
70.53872963354682
70.47568599304599
70.41445754568241
70.3550437105385
70.29744353681309
70.24165579347155
70.18767903217721
70.13551162886745
101.65001617649737
101.12618693160317
100.61022445880458
100.10213220652555
99.6019115889364
99.10956195806351
98.62508054583661
98.14846235798649
97.67970000666534
97.21878348816374
96.76569995839496
96.32043366506078
95.88296646309072
95.45327996973442
94.92602704732356
94.40078948510408
93.87756721423911
93.35636123274689
92.83717410702631
92.32001056210105
91.80487816881012
91.29178811835179
73.47125960085822
73.47125960085822
73.47125960085822
73.47125960085822
73.47125960085822
73.47125960085822
73.47125960085822
73.47125960085822
73.47125960085822
73.47125960085822
70.59996753529573
70.53498617302185
70.4718484533654
70.41054836059158
70.3510811057002
70.29344280682616
70.23763025068702
70.18364072281904
70.13147189409504
101.47578785209713
100.95192576563639
100.43615189871625
99.9284693757753
99.42887907204204
98.93737979234466
98.45396855385468
97.97864098644865
97.51139181583956
97.05221529234393
96.60110524619432
96.15805410670177
95.72304943151237
95.2960647255181
94.77230974424478
94.2505821432355
93.73086599006507
93.21314176138439
92.69738492720893
92.18356436322058
91.67164061485764
91.16156411041341
73.47125960085822
73.47125960085822
73.47125960085822
73.47125960085822
73.47125960085822
73.47125960085822
73.47125960085822
73.47125960085822
73.47125960085822
73.47125960085822
70.5881708328616
70.5230831307702
70.45981331497813
70.39837592562797
70.33878141529541
70.28103698709565
70.22514723007906
70.17111457537493
70.11893960372713
101.21626439722509
100.69233764323403
100.17679935748961
99.6696574371537
99.17091933564288
98.6805905317888
98.19867261260721
97.7251612426092
97.26004452399054
96.80330260940647
96.35490993019557
95.91484222218952
95.48309248026061
95.05970443900536
94.54073152448663
94.023905497882
93.50927349444201
92.99689276833988
92.48683426527921
91.9791863849203
91.47405870904835
90.97158519084701
73.47125960085822
73.47125960085822
73.47125960085822
73.47125960085822
73.47125960085822
73.47125960085822
73.47125960085822
73.47125960085822
73.47125960085822
73.47125960085822
70.55369557048493
70.48712900588428
70.422707719683
70.36038602379345
70.30012877651235
70.24190934239815
70.18570802258735
70.13151092390751
70.07930919282599
100.85882753922832
100.33463204067324
99.81889024543331
99.31165085687
98.8129897434637
98.32300820354793
97.84182931504122
97.36959124082598
96.90643583851957
96.45249029329226
96.00783888633681
95.5724810524096
95.14626806179446
94.72880016267167
94.21701510963523
93.70709275088473
93.19883556770192
92.69202064851491
92.18639261372229
91.68165699987726
91.1774752252604
90.67346327900313
73.47125960085822
73.47125960085822
73.47125960085822
73.47125960085822
73.47125960085822
73.47125960085822
73.47125960085822
73.47125960085822
73.47125960085822
73.47125960085822
70.44004330457693
70.3738221404604
70.30931752936188
70.24666944621364
70.18598804052367
70.12735785484743
70.07084110987029
70.01648004505613
69.96429849744146
100.40812562336754
99.88295969426217
99.365055610793
98.85448317491526
98.35136115063133
97.8558686330091
97.36826332881145
96.88890798791607
96.4183063052057
95.95714936521226
95.5063724296403
95.06722080612165
94.64133138963429
94.23086456116071
93.73407403029388
93.24120187041083
92.75283199119541
92.26958508973176
91.79212518265138
91.32116215587382
90.85744577135443
90.40174297554982
73.47125960085822
73.47125960085822
73.47125960085822
73.47125960085822
73.47125960085822
73.47125960085822
73.47125960085822
73.47125960085822
73.47125960085822
73.47125960085822
70.13178555843791
70.04581100102939
69.96512009290187
69.88944913170978
69.81858784989653
69.75237214681748
69.69067836415526
69.63341940348617
69.58054218866623
99.9178206611715
99.39120906917739
98.86971317492295
98.35321553281668
97.84152145964103
97.33435988016151
96.83138009069161
96.33214603227667
95.83613252265556
95.34273211472023
94.85128890464003
94.36118112846974
93.87194569477492
93.3833406404935
92.77801583510445
92.1736997602174
91.5703384294643
90.96785938881182
90.36617751292232
89.7652183285767
89.16497572552788
88.56563336247679
73.47125960085822
73.47125960085822
73.47125960085822
73.47125960085822
73.47125960085822
73.47125960085822
73.47125960085822
73.47125960085822
73.47125960085822
73.47125960085822
69.0011351869665
68.94466388197534
68.88860692949375
68.83320620564268
68.7786418232216
68.72504541944234
68.67251090882158
68.62110111132374
68.57085178508115
99.89296139544476
99.36630427176641
98.84470669213988
98.32803538427005
97.81607370924094
97.30852292865754
96.80499574400751
96.30500451897328
95.8079477742328
95.31310078984562
94.81962496444673
94.32664037927076
93.83343019635852
93.3396761318081
92.7272110452781
92.11562384654657
91.50483656236021
90.89469290507292
90.2849243674242
89.67509840967091
89.06448831414404
88.45193792129518
87.8300681689382
75.54505445340584
72.24900208359645
71.06361543645636
70.71204011022044
70.5844237505159
70.51763618921397
70.40098489302198
70.10306666638587
68.99909408303323
68.94177603829256
68.88567488370384
68.83006750238042
68.77515306920144
68.72104530461071
68.66784019445561
68.61561189532252
68.56441246933998
68.51427235940304
99.86824714580622
99.34155089004317
98.81986984058653
98.30305373546786
97.7908637868908
97.28297451370594
96.77896363641091
96.27829382581999
95.7802887946726
95.28410623114375
94.78871790971988
94.29295874886525
93.79581294858903
93.29689951130035
92.67731469681824
92.05852408368737
91.44045756373428
90.82290476565552
90.20545392734388
89.587400012631
88.9675604390427
88.343494706293
87.71159188323129
75.69524271249824
72.19772083036287
71.01628868098929
70.64955208447738
70.52099708498949
70.45165233405362
70.3352265866262
70.01896110349031
68.94095578252573
68.88396859890143
68.82788311124587
68.77259633957112
68.71804922422983
68.66429986391994
68.61141020400325
68.55943455365271
68.50841349808036
68.4583715527337
99.84368218365002
99.31695420872671
98.79521027833489
98.27828113571555
97.76590562865871
97.25773297803656
96.75330834676635
96.25204787460812
95.75320411952983
95.2558206496833
94.75867822417328
94.26029375111474
93.75926444633538
93.25513456359342
92.6283975278409
92.00245429163165
91.37730132344548
90.75272767506682
90.1282495127195
89.5030402749367
88.87579218128803
88.24463986643893
87.607287924187
75.8118986291498
72.14925398209124
70.96745936767297
70.5888864744876
70.45908635512208
70.38775682160507
70.2711655466441
69.93980273115993
68.88354325560282
68.82695295528474
68.77116706820956
68.71615496520008
68.6619093890225
68.60845082999514
68.55581907250152
68.50405313458462
68.45318395427441
68.40323077318074
99.81926877463619
99.29251778336172
98.77073426816328
98.25372674624012
97.74121157458899
97.23281474990385
96.72805212468535