# vtk DataFile Version 2.0
Niestacjonarne zagadnienie cieplne - ogrzewanie wody w garnku stalowym
ASCII
DATASET UNSTRUCTURED_GRID
POINTS 1353 float
0.0 0.0 0.0
0.0 0.0015384615384615385 0.0
0.0 0.003076923076923077 0.0
0.0 0.004615384615384615 0.0
0.0 0.006153846153846154 0.0
0.0 0.007692307692307693 0.0
0.0 0.00923076923076923 0.0
0.0 0.010769230769230769 0.0
0.0 0.012307692307692308 0.0
0.0 0.013846153846153847 0.0
0.0 0.015384615384615385 0.0
0.0 0.016923076923076923 0.0
0.0 0.01846153846153846 0.0
0.0 0.02 0.0
0.0 0.020555555555555556 0.0
0.0 0.021111111111111112 0.0
0.0 0.021666666666666667 0.0
0.0 0.022222222222222223 0.0
0.0 0.02277777777777778 0.0
0.0 0.023333333333333334 0.0
0.0 0.02388888888888889 0.0
0.0 0.024444444444444446 0.0
0.0 0.025 0.0
0.0 0.036111111111111115 0.0
0.0 0.04722222222222222 0.0
0.0 0.058333333333333334 0.0
0.0 0.06944444444444445 0.0
0.0 0.08055555555555556 0.0
0.0 0.09166666666666667 0.0
0.0 0.10277777777777777 0.0
0.0 0.1138888888888889 0.0
0.0 0.125 0.0
0.0 0.12555555555555556 0.0
0.0 0.12611111111111112 0.0
0.0 0.12666666666666668 0.0
0.0 0.1272222222222222 0.0
0.0 0.12777777777777777 0.0
0.0 0.12833333333333333 0.0
0.0 0.1288888888888889 0.0
0.0 0.12944444444444445 0.0
0.0 0.13 0.0
5.555555555555556E-4 0.0 0.0
5.555555555555556E-4 0.0015384615384615385 0.0
5.555555555555556E-4 0.003076923076923077 0.0
5.555555555555556E-4 0.004615384615384615 0.0
5.555555555555556E-4 0.006153846153846154 0.0
5.555555555555556E-4 0.007692307692307693 0.0
5.555555555555556E-4 0.00923076923076923 0.0
5.555555555555556E-4 0.010769230769230769 0.0
5.555555555555556E-4 0.012307692307692308 0.0
5.555555555555556E-4 0.013846153846153847 0.0
5.555555555555556E-4 0.015384615384615385 0.0
5.555555555555556E-4 0.016923076923076923 0.0
5.555555555555556E-4 0.01846153846153846 0.0
5.555555555555556E-4 0.02 0.0
5.555555555555556E-4 0.020555555555555556 0.0
5.555555555555556E-4 0.021111111111111112 0.0
5.555555555555556E-4 0.021666666666666667 0.0
5.555555555555556E-4 0.022222222222222223 0.0
5.555555555555556E-4 0.02277777777777778 0.0
5.555555555555556E-4 0.023333333333333334 0.0
5.555555555555556E-4 0.02388888888888889 0.0
5.555555555555556E-4 0.024444444444444446 0.0
5.555555555555556E-4 0.025 0.0
5.555555555555556E-4 0.036111111111111115 0.0
5.555555555555556E-4 0.04722222222222222 0.0
5.555555555555556E-4 0.058333333333333334 0.0
5.555555555555556E-4 0.06944444444444445 0.0
5.555555555555556E-4 0.08055555555555556 0.0
5.555555555555556E-4 0.09166666666666667 0.0
5.555555555555556E-4 0.10277777777777777 0.0
5.555555555555556E-4 0.1138888888888889 0.0
5.555555555555556E-4 0.125 0.0
5.555555555555556E-4 0.12555555555555556 0.0
5.555555555555556E-4 0.12611111111111112 0.0
5.555555555555556E-4 0.12666666666666668 0.0
5.555555555555556E-4 0.1272222222222222 0.0
5.555555555555556E-4 0.12777777777777777 0.0
5.555555555555556E-4 0.12833333333333333 0.0
5.555555555555556E-4 0.1288888888888889 0.0
5.555555555555556E-4 0.12944444444444445 0.0
5.555555555555556E-4 0.13 0.0
0.0011111111111111111 0.0 0.0
0.0011111111111111111 0.0015384615384615385 0.0
0.0011111111111111111 0.003076923076923077 0.0
0.0011111111111111111 0.004615384615384615 0.0
0.0011111111111111111 0.006153846153846154 0.0
0.0011111111111111111 0.007692307692307693 0.0
0.0011111111111111111 0.00923076923076923 0.0
0.0011111111111111111 0.010769230769230769 0.0
0.0011111111111111111 0.012307692307692308 0.0
0.0011111111111111111 0.013846153846153847 0.0
0.0011111111111111111 0.015384615384615385 0.0
0.0011111111111111111 0.016923076923076923 0.0
0.0011111111111111111 0.01846153846153846 0.0
0.0011111111111111111 0.02 0.0
0.0011111111111111111 0.020555555555555556 0.0
0.0011111111111111111 0.021111111111111112 0.0
0.0011111111111111111 0.021666666666666667 0.0
0.0011111111111111111 0.022222222222222223 0.0
0.0011111111111111111 0.02277777777777778 0.0
0.0011111111111111111 0.023333333333333334 0.0
0.0011111111111111111 0.02388888888888889 0.0
0.0011111111111111111 0.024444444444444446 0.0
0.0011111111111111111 0.025 0.0
0.0011111111111111111 0.036111111111111115 0.0
0.0011111111111111111 0.04722222222222222 0.0
0.0011111111111111111 0.058333333333333334 0.0
0.0011111111111111111 0.06944444444444445 0.0
0.0011111111111111111 0.08055555555555556 0.0
0.0011111111111111111 0.09166666666666667 0.0
0.0011111111111111111 0.10277777777777777 0.0
0.0011111111111111111 0.1138888888888889 0.0
0.0011111111111111111 0.125 0.0
0.0011111111111111111 0.12555555555555556 0.0
0.0011111111111111111 0.12611111111111112 0.0
0.0011111111111111111 0.12666666666666668 0.0
0.0011111111111111111 0.1272222222222222 0.0
0.0011111111111111111 0.12777777777777777 0.0
0.0011111111111111111 0.12833333333333333 0.0
0.0011111111111111111 0.1288888888888889 0.0
0.0011111111111111111 0.12944444444444445 0.0
0.0011111111111111111 0.13 0.0
0.0016666666666666666 0.0 0.0
0.0016666666666666666 0.0015384615384615385 0.0
0.0016666666666666666 0.003076923076923077 0.0
0.0016666666666666666 0.004615384615384615 0.0
0.0016666666666666666 0.006153846153846154 0.0
0.0016666666666666666 0.007692307692307693 0.0
0.0016666666666666666 0.00923076923076923 0.0
0.0016666666666666666 0.010769230769230769 0.0
0.0016666666666666666 0.012307692307692308 0.0
0.0016666666666666666 0.013846153846153847 0.0
0.0016666666666666666 0.015384615384615385 0.0
0.0016666666666666666 0.016923076923076923 0.0
0.0016666666666666666 0.01846153846153846 0.0
0.0016666666666666666 0.02 0.0
0.0016666666666666666 0.020555555555555556 0.0
0.0016666666666666666 0.021111111111111112 0.0
0.0016666666666666666 0.021666666666666667 0.0
0.0016666666666666666 0.022222222222222223 0.0
0.0016666666666666666 0.02277777777777778 0.0
0.0016666666666666666 0.023333333333333334 0.0
0.0016666666666666666 0.02388888888888889 0.0
0.0016666666666666666 0.024444444444444446 0.0
0.0016666666666666666 0.025 0.0
0.0016666666666666666 0.036111111111111115 0.0
0.0016666666666666666 0.04722222222222222 0.0
0.0016666666666666666 0.058333333333333334 0.0
0.0016666666666666666 0.06944444444444445 0.0
0.0016666666666666666 0.08055555555555556 0.0
0.0016666666666666666 0.09166666666666667 0.0
0.0016666666666666666 0.10277777777777777 0.0
0.0016666666666666666 0.1138888888888889 0.0
0.0016666666666666666 0.125 0.0
0.0016666666666666666 0.12555555555555556 0.0
0.0016666666666666666 0.12611111111111112 0.0
0.0016666666666666666 0.12666666666666668 0.0
0.0016666666666666666 0.1272222222222222 0.0
0.0016666666666666666 0.12777777777777777 0.0
0.0016666666666666666 0.12833333333333333 0.0
0.0016666666666666666 0.1288888888888889 0.0
0.0016666666666666666 0.12944444444444445 0.0
0.0016666666666666666 0.13 0.0
0.0022222222222222222 0.0 0.0
0.0022222222222222222 0.0015384615384615385 0.0
0.0022222222222222222 0.003076923076923077 0.0
0.0022222222222222222 0.004615384615384615 0.0
0.0022222222222222222 0.006153846153846154 0.0
0.0022222222222222222 0.007692307692307693 0.0
0.0022222222222222222 0.00923076923076923 0.0
0.0022222222222222222 0.010769230769230769 0.0
0.0022222222222222222 0.012307692307692308 0.0
0.0022222222222222222 0.013846153846153847 0.0
0.0022222222222222222 0.015384615384615385 0.0
0.0022222222222222222 0.016923076923076923 0.0
0.0022222222222222222 0.01846153846153846 0.0
0.0022222222222222222 0.02 0.0
0.0022222222222222222 0.020555555555555556 0.0
0.0022222222222222222 0.021111111111111112 0.0
0.0022222222222222222 0.021666666666666667 0.0
0.0022222222222222222 0.022222222222222223 0.0
0.0022222222222222222 0.02277777777777778 0.0
0.0022222222222222222 0.023333333333333334 0.0
0.0022222222222222222 0.02388888888888889 0.0
0.0022222222222222222 0.024444444444444446 0.0
0.0022222222222222222 0.025 0.0
0.0022222222222222222 0.036111111111111115 0.0
0.0022222222222222222 0.04722222222222222 0.0
0.0022222222222222222 0.058333333333333334 0.0
0.0022222222222222222 0.06944444444444445 0.0
0.0022222222222222222 0.08055555555555556 0.0
0.0022222222222222222 0.09166666666666667 0.0
0.0022222222222222222 0.10277777777777777 0.0
0.0022222222222222222 0.1138888888888889 0.0
0.0022222222222222222 0.125 0.0
0.0022222222222222222 0.12555555555555556 0.0
0.0022222222222222222 0.12611111111111112 0.0
0.0022222222222222222 0.12666666666666668 0.0
0.0022222222222222222 0.1272222222222222 0.0
0.0022222222222222222 0.12777777777777777 0.0
0.0022222222222222222 0.12833333333333333 0.0
0.0022222222222222222 0.1288888888888889 0.0
0.0022222222222222222 0.12944444444444445 0.0
0.0022222222222222222 0.13 0.0
0.002777777777777778 0.0 0.0
0.002777777777777778 0.0015384615384615385 0.0
0.002777777777777778 0.003076923076923077 0.0
0.002777777777777778 0.004615384615384615 0.0
0.002777777777777778 0.006153846153846154 0.0
0.002777777777777778 0.007692307692307693 0.0
0.002777777777777778 0.00923076923076923 0.0
0.002777777777777778 0.010769230769230769 0.0
0.002777777777777778 0.012307692307692308 0.0
0.002777777777777778 0.013846153846153847 0.0
0.002777777777777778 0.015384615384615385 0.0
0.002777777777777778 0.016923076923076923 0.0
0.002777777777777778 0.01846153846153846 0.0
0.002777777777777778 0.02 0.0
0.002777777777777778 0.020555555555555556 0.0
0.002777777777777778 0.021111111111111112 0.0
0.002777777777777778 0.021666666666666667 0.0
0.002777777777777778 0.022222222222222223 0.0
0.002777777777777778 0.02277777777777778 0.0
0.002777777777777778 0.023333333333333334 0.0
0.002777777777777778 0.02388888888888889 0.0
0.002777777777777778 0.024444444444444446 0.0
0.002777777777777778 0.025 0.0
0.002777777777777778 0.036111111111111115 0.0
0.002777777777777778 0.04722222222222222 0.0
0.002777777777777778 0.058333333333333334 0.0
0.002777777777777778 0.06944444444444445 0.0
0.002777777777777778 0.08055555555555556 0.0
0.002777777777777778 0.09166666666666667 0.0
0.002777777777777778 0.10277777777777777 0.0
0.002777777777777778 0.1138888888888889 0.0
0.002777777777777778 0.125 0.0
0.002777777777777778 0.12555555555555556 0.0
0.002777777777777778 0.12611111111111112 0.0
[...]
POINT_DATA 1353
SCALARS Temperatura float 1
LOOKUP_TABLE default
100.61298060812915
100.08713043807809
99.56632541986627
99.0501837525855
98.53835095761971
98.03039052885634
97.52574251983499
97.0236708511975
96.52319226800799
96.0229408112615
95.52102274969009
95.01422559032159
94.49866449680748
93.95245835675911
93.24131637251277
92.57028648267273
91.91175785520089
91.26091031194618
90.61474164220844
89.97131813174694
89.3292468404804
88.68752546860892
88.04550037945043
76.84287317542815
72.77750890693393
71.58143155804866
71.17679295502737
71.04197924456162
70.96580334436747
70.84591813016131
70.47210143904385
69.46081910617885
69.40511511455335
69.34989867139107
69.29524140211618
69.24120051838914
69.1878213698632
69.13513939464777
69.08318135891763
69.03196598506658
68.98150417618736
100.6370046177047
100.1110453243821
99.59010438025982
99.07383238270035
98.56187537053454
98.0537999789715
97.5490489796825
97.04689149091342
96.54634774125212
96.04608035066123
95.54414555614369
95.03773829041543
94.52144737247873
93.98401771697675
93.30765426145983
92.63958149298152
91.98265970445507
91.33245521131865
90.6865414901044
90.0431371711296
89.40090661106584
88.75885868383997
88.11633112531588
76.88886433645122
72.83048508445815
71.63411641255084
71.22976184336339
71.09500193555093
71.01886616090853
70.8989587365966
70.52580342728704
69.51206207980862
69.45625631319866
69.40094724538766
69.34620507559205
69.29208573339174
69.23863362409074
69.18588362473496
69.13386225507914
69.08258818374387
69.03207233377903
100.66112469576879
100.1351151938481
99.61408096319461
99.0977237506717
98.58569868030523
98.07758023416368
97.5728205322934
97.07070170123592
96.57026704110795
96.07021036706959
95.56868178858292
95.0629814105537
94.5482351652183
94.01953141491502
93.35839035562012
92.7010012296969
92.04893290282881
91.40169797634998
90.75774475414424
90.11567115683118
89.47427094122133
88.83256866683028
88.18986374254608
76.91041698016612
72.8815671869307
71.68666505279835
71.28402146129638
71.14968839891664
71.07383393722414
70.95409496042815
70.58371107438829
69.56463486087877
69.50863909927908
69.45316664118884
69.39828291087208
69.34403967545293
69.29047838497378
69.23763225459032
69.18552715280327
69.13418167866719
69.08360687697343
100.68537003845877
100.15934090840337
99.63825421089925
99.12185585074779
98.60981788124153
98.10172721585622
97.59705118094085
97.09509390408328
96.59493377564915
96.09532362165145
95.59453778412048
95.09006523920905
94.57817822363624
94.05673069914832
93.40622096360113
92.75773795347577
92.11218367632132
91.46949641162693
90.82891941809706
90.18938857943854
89.54980953220056
88.90917641863912
88.26668176214781
76.90701756182364
72.93100935472388
71.73900891218081
71.33959798590773
71.2060328319963
71.13071653793645
71.01130574424421
70.64587033786205
69.61850768312746
69.56223850545486
69.5065370510321
69.45145946643143
69.39704986562259
69.34334471163871
69.29037482879285
69.23816552622542
69.18673573567499
69.13609698177663
100.70975559581892
100.1837257955734
99.66262216853885
99.14622526205122
98.63422796959706
98.12623402173752
97.62173136648349
97.12005400619879
96.62032722848629
96.12138500984089
95.62164668855449
95.11891164029792
94.61047412997584
94.09530620441204
93.45348604771256
92.81293985162284
92.17410382819676
91.53691385819525
90.90082908352954
90.26496755016625
89.62825023300688
88.98953690763088
88.34778404555102
76.87780934801516
72.97924660458033
71.79102903165821
71.39653610557889
71.26402358716415
71.18952974026998
71.07055365782401
70.71235629218468
69.67362799485375
69.61701175913338
69.5610257621379
69.50571002835952
69.45109649714834
69.39721485847927
69.34409381063575
69.2917592492486
69.24023161137512
69.18952366991886
100.73428907714742
100.2082721158395
99.68718217587619
99.17082707487391
98.65892197644236
98.15109110906567
97.64684785274973
97.14556289400568
96.64641897401776
96.14834663644527
95.64993399005502
95.14933881769075
94.64461527146325
94.13516164512495
93.50112911471476
92.86802097470193
92.23599494373569
91.60490141120432
90.97424045298301
90.34316339875255
89.71049830494069
89.07482008244766
88.43463419947051
76.82156421679551
73.02691070201863
71.842548623624
71.45490204326609
71.32364185144755
71.25029621904199
71.13178349961757
70.78327523555006
69.72991705932448
69.6728982589089
69.61658973368657
69.5610042382353
69.50615550616781
69.45206611624354
69.39876522926076
69.3462825044972
69.29464208301337
69.24385922492216
100.75897375756445
100.23298019678336
99.71193055916366
99.19565492665072
98.68389102491315
98.17628642526726
97.67238401191494
97.17159687020451
96.67317352442355
96.17615226828892
95.6793070882501
95.18114719659437
94.68026643469113
94.17622259741866
93.54956316009068
92.92369432901016
92.298618489339
91.67412889750311
91.0497440291501
90.42463798511879
89.79750253128891
89.16647120708643
88.52924723558192
76.73663778187134
73.07485423244616
71.89332194924566
71.51478807540136
71.38485966942515
71.31304701318207
71.19492021557997
70.858767932413
69.78726430560582
69.7298205285929
69.67318201068319
69.61731335854446
69.56220405765431
69.50787288372872
69.45435897430275
69.40170117520566
69.34993044170528
69.29906607493754
100.78380976973733
100.25784833871633
99.73686238078736
99.22070101581872
98.70912441369704
98.20180557541912
97.69832015530866
97.19812811784402
96.7005497305913
96.204738432776
95.70966106965481
95.21414808686389
94.71718404610439
94.21840057447666
93.5989507528344
92.9802899781674
92.36235233746291
91.74493061109233
91.12761496284885
90.50970111494848
89.89000628842624
89.26608972704322
88.63433985065322
76.62089980586235
73.1241855152967
71.943018564778
71.5763189053659
71.44763715473982
71.37782358245317
71.25986596160908
70.93901444271948
69.84551801957502
69.787689353845
69.7307636106318
69.67463016115573
69.61922571991988
69.5646076166855
69.51083790702788
69.45797128168532
69.40604870602067
69.35509495875016
100.80879479823854
100.28287293456955
99.76197132098584
99.24595611410263
98.73460971917886
98.22763202120318
97.72463388022534
97.22512531542968
96.72850200149384
96.23403599102458
95.7408855140375
95.24816889326112
94.75517212382879
94.26158818071228
93.64931045242312
93.03790417583305
92.42729430992343
91.81732684099332
91.20773471706896
90.59808598987287
89.98765371458268
89.37528017960643
88.753589819494
76.47162616181348
73.17631877307262
71.99120141788123
71.63966044360694
71.51191867733282
71.44468054109555
71.3264963241664
71.02424020193935
69.90447402703029
69.84633717723092
69.78941824365866
69.73297625129483
69.67721130493501
69.62223840036265
69.56815490108485
69.51503611342866
69.46293493608987
69.41188231746402
100.83392451548066
100.30804864150284
99.78724965759626
99.27140959717163
98.76033291249486
98.25374729899133
97.7513004419967
97.25255430144918
96.7569814363939
96.26397214846244
95.77286898289618
95.28305071442901
94.79405887683909
94.3056614102803
93.70057288550488
93.09648578554031
92.49334808242187
91.89108887875476
91.28962406537532
90.68887953711905
90.08884881528412
89.48971439639287
74.42661915278627
74.42661915278627
74.42661915278627
74.42661915278627
74.42661915278627
74.42661915278627
74.42661915278627
74.42661915278627
74.42661915278627
74.42661915278627
69.90654232433756
69.84927532047008
69.7923949741784
69.73614903870809
69.68072168713351
69.62624739892848
69.57282205937518
69.52050978713467
69.46934708315632
101.32926726841697
100.80484747053764
100.28766353832444
99.7777856773492
99.27533338386586
98.78048688484147
98.29350552388071
97.8147543356212
97.34474012659958
96.8841581183702
96.43394890452184
95.9953643772221
95.5700492064838
95.16017288930482
94.66412823715665
94.172001028929
93.68437746123475
93.20188072750062
92.72517761239922
92.25498110177534
91.79204445203744
91.33713856188616
74.42661915278627
74.42661915278627
74.42661915278627
74.42661915278627
74.42661915278627
74.42661915278627
74.42661915278627
74.42661915278627
74.42661915278627
74.42661915278627
71.05332154844847
70.96620201743045
70.88440268605244
70.80765584845155
70.73574820091888
70.66851335353843
70.60582596853351
70.54759779252412
70.4937750661537
101.78430766410227
101.26086445838257
100.74585409137276
100.23932548067775
99.74135485493669
99.2520440029525
98.77151659559973
98.29991144506586
97.8373710428095
97.38402308829643
96.93995211989728
96.50515740745641
96.07948942811161
95.66254665226981
95.15139461743554
94.64209488078518
94.13444907416842
93.62823331491812
93.12319109200307
92.61902660887112
92.1153997029676
91.61192448368399
74.42661915278627
74.42661915278627
74.42661915278627
74.42661915278627
74.42661915278627
74.42661915278627
74.42661915278627
74.42661915278627
74.42661915278627
74.42661915278627
71.36610454235938
71.29900697974625
71.23361323907714
71.17006533388309
71.10847498424414
71.04892792661343
70.99148725992346
70.93619582684477
70.88307781885354
102.14512199118852
101.62194931384687
101.10714215965108
100.60070839960103
100.10265545062042
99.61298873711318
99.1317097645259
98.65881407969583
98.19428962513348
97.7381163526407
97.29026846296581
96.85072145746862
96.41946814449945
95.99655223971854
95.4781452230804
94.96187542371621
94.44779012519325
93.9359467754538
93.4264165766909
92.91928826724026
92.41467187239049
91.91270192007775
74.42661915278627
74.42661915278627
74.42661915278627
74.42661915278627
74.42661915278627
74.42661915278627
74.42661915278627
74.42661915278627
74.42661915278627
74.42661915278627
71.48141383055915
71.41397054119808
71.34866513946774
71.28545133867675
71.22429355682364
71.16516483945017
71.10804526426324
71.05292079262206
70.99978249189242
102.40710016377793
101.88399269862737
101.36894754165714
100.8619677673948
100.36305418263913
99.87220550615432
99.3894186527294
98.9146891352005
98.44801154926171
97.98938000327162
97.53878817299527
97.09622831713938
96.6616877955924
96.23513985565162
95.71190444765008
95.19068604045611
94.67146860543394
94.15423250745293
93.63895308271262
93.12559904344806
92.61413073284666
92.10449832701963
74.42661915278627
74.42661915278627
74.42661915278627
74.42661915278627
74.42661915278627
74.42661915278627
74.42661915278627
74.42661915278627
74.42661915278627
74.42661915278627
71.51640075614965
71.45045702018932
71.38631924818505
71.32400221589758
71.26351655254814
71.20486959279665
71.14806602188764
71.093108338536
71.03999716690714
102.58298358131755
102.05990926210971
101.54467368434095
101.0372802484799
100.53773030408082
100.04602312174899
99.56215583491543
99.08612333328925
98.61791809485317
98.15752996284117
97.70494592052759
97.26015002308158
96.82312391435153
96.39384898940119
95.86708297617855
95.34232172405677
94.81956513199717
94.29881417037427
93.78007138471688
93.2633414886573
92.74863205450454
92.23595429203465
74.42661915278627
74.42661915278627
74.42661915278627
74.42661915278627
74.42661915278627
74.42661915278627
74.42661915278627
74.42661915278627
74.42661915278627
74.42661915278627
71.5283727523124
71.4625372430652
71.39853374102485
71.33635618319182
71.27599975124764
71.21746054695208
71.16073535006704
71.10582144615799
71.05271651151321
102.6840427169476
102.16098607966833
101.64563690214699
101.13799850178215
100.63807217238157
100.14585718316648
99.66135078435896
99.18454822686378
98.71544280522103
98.25402593194477
97.80028724321383
97.35421470828196
96.91579463061589
96.48501120790158
95.95629428732859
95.42956534430641
94.90482102883541
94.38205758710392
93.86127068380353
93.3424551831157
92.82560487978158
92.31071217551856
74.42661915278627
74.42661915278627
74.42661915278627
74.42661915278627
74.42661915278627
74.42661915278627
74.42661915278627
74.42661915278627
74.42661915278627
74.42661915278627
71.53204823043798
71.46633692379686
71.40242886701444
71.34032400460289
71.2800217823273
71.22152127145189
71.16482125967963
71.10992031496652
71.05681682767207
102.71699212100668
102.19394104639734
101.67855425038663
101.17083510565989
100.6707850298319
100.17840349305374
99.69368802688852
99.21663423078864
98.74723577061863
98.28548436226396
97.83136973467387
97.38487957767268
96.94599952218655
96.51471332321015
95.98534393999262
95.45795812124754
94.93255356590352
94.40912811686967
93.88767986301906
93.36820726860319
92.85070933722274
92.33518581622934
74.42661915278627
74.42661915278627
74.42661915278627
74.42661915278627
74.42661915278627
74.42661915278627
74.42661915278627
74.42661915278627
74.42661915278627
74.42661915278627
71.53290899497823
71.46720552615311
71.40330856918295
71.34121572143731
71.28092480308193
71.22243378161134
71.16574071731688
71.11084372541191
71.05774095125115
102.68404271694817
102.16098607966892
101.64563690214756
101.1379985017827
100.63807217238204
100.14585718316688
99.66135078435936
99.18454822686421
98.71544280522149
98.25402593194525
97.80028724321434
97.3542147082825
96.91579463061645
96.48501120790215
95.95629428732916
95.42956534430695
94.90482102883595
94.3820575871044
93.861270683804
93.34245518311617
92.82560487978205
92.31071217551909
74.42661915278627
74.42661915278627
74.42661915278627
74.42661915278627
74.42661915278627
74.42661915278627
74.42661915278627
74.42661915278627
74.42661915278627
74.42661915278627
71.53204823043866
71.46633692379757
71.40242886701516
71.34032400460363
71.28002178232805
71.22152127145266
71.1648212596804
71.10992031496727
71.0568168276728
102.58298358131846
102.05990926211064
101.54467368434186
101.0372802484808
100.5377303040817
100.04602312174987
99.56215583491627
99.0861233332901
98.61791809485396
98.15752996284195
97.70494592052837
97.26015002308239
96.82312391435234
96.39384898940204
95.86708297617939
95.34232172405758
94.81956513199799
94.29881417037511
93.78007138471773
93.26334148865818
92.74863205450542
92.23595429203547
74.42661915278627
74.42661915278627
74.42661915278627
74.42661915278627
74.42661915278627
74.42661915278627
74.42661915278627
74.42661915278627
74.42661915278627
74.42661915278627
71.52837275231404
71.46253724306685
71.39853374102654
71.33635618319357
71.27599975124937
71.2174605469538
71.16073535006876
71.10582144615972
71.05271651151494
102.40710016377858
101.88399269862799
101.36894754165773
100.86196776739536
100.36305418263964
99.87220550615478
99.38941865272984
98.91468913520089
98.4480115492621
97.98938000327203
97.53878817299575
97.09622831713989
96.66168779559298
96.23513985565222
95.71190444765075
95.19068604045675
94.67146860543455
94.15423250745353
93.63895308271312
93.12559904344845
92.61413073284697
92.10449832701993
74.42661915278627
74.42661915278627
74.42661915278627
74.42661915278627
74.42661915278627
74.42661915278627
74.42661915278627
74.42661915278627
74.42661915278627
74.42661915278627
71.51640075615387
71.45045702019365
71.38631924818945
71.32400221590198
71.26351655255253
71.20486959280099
71.14806602189186
71.0931083385401
71.03999716691122
102.14512199118896
101.62194931384734
101.1071421596516
100.60070839960161
100.102655450621
99.61298873711375
99.13170976452649
98.65881407969641
98.19428962513409
97.7381163526413
97.29026846296638
96.85072145746915
96.41946814449993
95.99655223971902
95.47814522308089
94.96187542371663
94.44779012519369
93.93594677545428
93.42641657669148
92.91928826724089
92.41467187239112
91.91270192007838
74.42661915278627
74.42661915278627
74.42661915278627
74.42661915278627
74.42661915278627
74.42661915278627
74.42661915278627
74.42661915278627
74.42661915278627
74.42661915278627
71.48141383056252
71.41397054120152
71.34866513947125
71.28545133868035
71.2242935568273
71.16516483945388
71.108045264267
71.05292079262588
70.99978249189626
101.78430766410197
101.26086445838227
100.74585409137244
100.23932548067738
99.7413548549363
99.25204400295213
98.77151659559938
98.2999114450655
97.83737104280914
97.38402308829615
96.93995211989713
96.5051574074563
96.07948942811151
95.66254665226973
95.15139461743547
94.64209488078514
94.13444907416837
93.62823331491809
93.12319109200295
92.61902660887098
92.11539970296742
91.61192448368377
74.42661915278627
74.42661915278627
74.42661915278627
74.42661915278627
74.42661915278627
74.42661915278627
74.42661915278627
74.42661915278627
74.42661915278627
74.42661915278627
71.36610454236191
71.29900697974882
71.23361323907974
71.17006533388567
71.10847498424674
71.04892792661603
70.991487259926
70.93619582684728
70.88307781885604
101.3292672684162
100.8048474705369
100.28766353832368
99.77778567734848
99.27533338386513
98.78048688484077
98.29350552388007
97.81475433562056
97.34474012659896
96.88415811836961
96.43394890452134
95.99536437722172
95.57004920648346
95.16017288930455
94.66412823715642
94.17200102892878
93.68437746123453
93.20188072750041
92.72517761239901
92.2549811017751
91.79204445203717
91.33713856188588
74.42661915278627
74.42661915278627
74.42661915278627
74.42661915278627
74.42661915278627
74.42661915278627
74.42661915278627
74.42661915278627
74.42661915278627
74.42661915278627
71.05332154845013
70.96620201743214
70.88440268605419
70.80765584845335
70.7357482009207
70.66851335354026
70.60582596853537
70.54759779252602
70.49377506615559
100.83392451547961
100.30804864150177
99.78724965759532
99.2714095971708
98.76033291249423
98.25374729899082
97.75130044199626
97.25255430144878
96.75698143639353
96.26397214846207
95.77286898289573
95.2830507144285
94.79405887683872
94.30566141027998
93.7005728855047
93.09648578554031
92.493348082422
91.89108887875503
91.28962406537568
90.68887953711949
90.08884881528462
89.4897143963934
74.42661915278627
74.42661915278627
74.42661915278627
74.42661915278627
74.42661915278627
74.42661915278627
74.42661915278627
74.42661915278627
74.42661915278627
74.42661915278627
69.90654232433943
69.84927532047199
69.79239497418031
69.73614903871001
69.68072168713549
69.62624739893049
69.57282205937715
69.52050978713659
69.46934708315824
100.80879479823739
100.28287293456845
99.76197132098494
99.24595611410182
98.73460971917834
98.22763202120262
97.72463388022481
97.2251253154293
96.72850200149345
96.2340359910242
95.740885514037
95.24816889326056
94.75517212382839
94.26158818071195
93.64931045242292
93.03790417583308
92.42729430992361
91.81732684099359
91.2077347170694
90.59808598987338
89.98765371458315
89.37528017960705
88.75358981949465
76.47162616181544
73.17631877307262
71.99120141788107
71.63966044360839
71.51191867733323
71.44468054109623
71.3264963241669
71.0242402019384
69.90447402703205
69.84633717723277
69.78941824366053
69.73297625129668
69.6772113049369
69.62223840036454
69.56815490108673
69.51503611343051
69.46293493609173
69.41188231746584
100.78380976973618
100.25784833871519
99.73686238078645
99.22070101581804
98.70912441369651
98.20180557541859
97.69832015530814
97.19812811784364
96.7005497305909
96.2047384327756
95.70966106965429
95.21414808686335
94.71718404610397
94.21840057447635
93.59895075283427
92.9802899781674
92.36235233746307
91.74493061109258
91.12761496284922
90.50970111494897
89.89000628842678
89.26608972704382
88.63433985065382
76.62089980586438
73.12418551529676
71.94301856477796
71.57631890536729
71.4476371547403
71.37782358245383
71.25986596160959
70.9390144427186
69.84551801957682
69.78768935384683
69.73076361063366
69.67463016115755
69.61922571992173
69.56460761668735
69.51083790702972
69.45797128168714
69.4060487060225
69.35509495875198
100.75897375756327
100.23298019678224
99.71193055916274
99.19565492664996
98.68389102491264
98.17628642526675
97.67238401191445
97.17159687020407
96.67317352442313
96.1761522682885
95.67930708824957
95.18114719659387
94.68026643469065
94.17622259741837
93.5495631600906
92.92369432901016
92.29861848933908
91.67412889750331
91.04974402915047
90.42463798511915
89.7975025312895
89.16647120708707
88.52924723558272
76.73663778187334
73.07485423244633
71.89332194924559
71.5147880754027
71.38485966942561
71.31304701318267
71.19492021558058
70.85876793241214
69.78726430560765
69.72982052859474
69.67318201068501
69.61731335854627
69.56220405765616
69.50787288373056
69.45435897430455
69.40170117520744
69.34993044170706
69.29906607493935
100.73428907714627
100.20827211583843
99.68718217587526