# vtk DataFile Version 2.0
Niestacjonarne zagadnienie cieplne - ogrzewanie wody w garnku stalowym
ASCII
DATASET UNSTRUCTURED_GRID
POINTS 1353 float
0.0 0.0 0.0
0.0 0.0015384615384615385 0.0
0.0 0.003076923076923077 0.0
0.0 0.004615384615384615 0.0
0.0 0.006153846153846154 0.0
0.0 0.007692307692307693 0.0
0.0 0.00923076923076923 0.0
0.0 0.010769230769230769 0.0
0.0 0.012307692307692308 0.0
0.0 0.013846153846153847 0.0
0.0 0.015384615384615385 0.0
0.0 0.016923076923076923 0.0
0.0 0.01846153846153846 0.0
0.0 0.02 0.0
0.0 0.020555555555555556 0.0
0.0 0.021111111111111112 0.0
0.0 0.021666666666666667 0.0
0.0 0.022222222222222223 0.0
0.0 0.02277777777777778 0.0
0.0 0.023333333333333334 0.0
0.0 0.02388888888888889 0.0
0.0 0.024444444444444446 0.0
0.0 0.025 0.0
0.0 0.036111111111111115 0.0
0.0 0.04722222222222222 0.0
0.0 0.058333333333333334 0.0
0.0 0.06944444444444445 0.0
0.0 0.08055555555555556 0.0
0.0 0.09166666666666667 0.0
0.0 0.10277777777777777 0.0
0.0 0.1138888888888889 0.0
0.0 0.125 0.0
0.0 0.12555555555555556 0.0
0.0 0.12611111111111112 0.0
0.0 0.12666666666666668 0.0
0.0 0.1272222222222222 0.0
0.0 0.12777777777777777 0.0
0.0 0.12833333333333333 0.0
0.0 0.1288888888888889 0.0
0.0 0.12944444444444445 0.0
0.0 0.13 0.0
5.555555555555556E-4 0.0 0.0
5.555555555555556E-4 0.0015384615384615385 0.0
5.555555555555556E-4 0.003076923076923077 0.0
5.555555555555556E-4 0.004615384615384615 0.0
5.555555555555556E-4 0.006153846153846154 0.0
5.555555555555556E-4 0.007692307692307693 0.0
5.555555555555556E-4 0.00923076923076923 0.0
5.555555555555556E-4 0.010769230769230769 0.0
5.555555555555556E-4 0.012307692307692308 0.0
5.555555555555556E-4 0.013846153846153847 0.0
5.555555555555556E-4 0.015384615384615385 0.0
5.555555555555556E-4 0.016923076923076923 0.0
5.555555555555556E-4 0.01846153846153846 0.0
5.555555555555556E-4 0.02 0.0
5.555555555555556E-4 0.020555555555555556 0.0
5.555555555555556E-4 0.021111111111111112 0.0
5.555555555555556E-4 0.021666666666666667 0.0
5.555555555555556E-4 0.022222222222222223 0.0
5.555555555555556E-4 0.02277777777777778 0.0
5.555555555555556E-4 0.023333333333333334 0.0
5.555555555555556E-4 0.02388888888888889 0.0
5.555555555555556E-4 0.024444444444444446 0.0
5.555555555555556E-4 0.025 0.0
5.555555555555556E-4 0.036111111111111115 0.0
5.555555555555556E-4 0.04722222222222222 0.0
5.555555555555556E-4 0.058333333333333334 0.0
5.555555555555556E-4 0.06944444444444445 0.0
5.555555555555556E-4 0.08055555555555556 0.0
5.555555555555556E-4 0.09166666666666667 0.0
5.555555555555556E-4 0.10277777777777777 0.0
5.555555555555556E-4 0.1138888888888889 0.0
5.555555555555556E-4 0.125 0.0
5.555555555555556E-4 0.12555555555555556 0.0
5.555555555555556E-4 0.12611111111111112 0.0
5.555555555555556E-4 0.12666666666666668 0.0
5.555555555555556E-4 0.1272222222222222 0.0
5.555555555555556E-4 0.12777777777777777 0.0
5.555555555555556E-4 0.12833333333333333 0.0
5.555555555555556E-4 0.1288888888888889 0.0
5.555555555555556E-4 0.12944444444444445 0.0
5.555555555555556E-4 0.13 0.0
0.0011111111111111111 0.0 0.0
0.0011111111111111111 0.0015384615384615385 0.0
0.0011111111111111111 0.003076923076923077 0.0
0.0011111111111111111 0.004615384615384615 0.0
0.0011111111111111111 0.006153846153846154 0.0
0.0011111111111111111 0.007692307692307693 0.0
0.0011111111111111111 0.00923076923076923 0.0
0.0011111111111111111 0.010769230769230769 0.0
0.0011111111111111111 0.012307692307692308 0.0
0.0011111111111111111 0.013846153846153847 0.0
0.0011111111111111111 0.015384615384615385 0.0
0.0011111111111111111 0.016923076923076923 0.0
0.0011111111111111111 0.01846153846153846 0.0
0.0011111111111111111 0.02 0.0
0.0011111111111111111 0.020555555555555556 0.0
0.0011111111111111111 0.021111111111111112 0.0
0.0011111111111111111 0.021666666666666667 0.0
0.0011111111111111111 0.022222222222222223 0.0
0.0011111111111111111 0.02277777777777778 0.0
0.0011111111111111111 0.023333333333333334 0.0
0.0011111111111111111 0.02388888888888889 0.0
0.0011111111111111111 0.024444444444444446 0.0
0.0011111111111111111 0.025 0.0
0.0011111111111111111 0.036111111111111115 0.0
0.0011111111111111111 0.04722222222222222 0.0
0.0011111111111111111 0.058333333333333334 0.0
0.0011111111111111111 0.06944444444444445 0.0
0.0011111111111111111 0.08055555555555556 0.0
0.0011111111111111111 0.09166666666666667 0.0
0.0011111111111111111 0.10277777777777777 0.0
0.0011111111111111111 0.1138888888888889 0.0
0.0011111111111111111 0.125 0.0
0.0011111111111111111 0.12555555555555556 0.0
0.0011111111111111111 0.12611111111111112 0.0
0.0011111111111111111 0.12666666666666668 0.0
0.0011111111111111111 0.1272222222222222 0.0
0.0011111111111111111 0.12777777777777777 0.0
0.0011111111111111111 0.12833333333333333 0.0
0.0011111111111111111 0.1288888888888889 0.0
0.0011111111111111111 0.12944444444444445 0.0
0.0011111111111111111 0.13 0.0
0.0016666666666666666 0.0 0.0
0.0016666666666666666 0.0015384615384615385 0.0
0.0016666666666666666 0.003076923076923077 0.0
0.0016666666666666666 0.004615384615384615 0.0
0.0016666666666666666 0.006153846153846154 0.0
0.0016666666666666666 0.007692307692307693 0.0
0.0016666666666666666 0.00923076923076923 0.0
0.0016666666666666666 0.010769230769230769 0.0
0.0016666666666666666 0.012307692307692308 0.0
0.0016666666666666666 0.013846153846153847 0.0
0.0016666666666666666 0.015384615384615385 0.0
0.0016666666666666666 0.016923076923076923 0.0
0.0016666666666666666 0.01846153846153846 0.0
0.0016666666666666666 0.02 0.0
0.0016666666666666666 0.020555555555555556 0.0
0.0016666666666666666 0.021111111111111112 0.0
0.0016666666666666666 0.021666666666666667 0.0
0.0016666666666666666 0.022222222222222223 0.0
0.0016666666666666666 0.02277777777777778 0.0
0.0016666666666666666 0.023333333333333334 0.0
0.0016666666666666666 0.02388888888888889 0.0
0.0016666666666666666 0.024444444444444446 0.0
0.0016666666666666666 0.025 0.0
0.0016666666666666666 0.036111111111111115 0.0
0.0016666666666666666 0.04722222222222222 0.0
0.0016666666666666666 0.058333333333333334 0.0
0.0016666666666666666 0.06944444444444445 0.0
0.0016666666666666666 0.08055555555555556 0.0
0.0016666666666666666 0.09166666666666667 0.0
0.0016666666666666666 0.10277777777777777 0.0
0.0016666666666666666 0.1138888888888889 0.0
0.0016666666666666666 0.125 0.0
0.0016666666666666666 0.12555555555555556 0.0
0.0016666666666666666 0.12611111111111112 0.0
0.0016666666666666666 0.12666666666666668 0.0
0.0016666666666666666 0.1272222222222222 0.0
0.0016666666666666666 0.12777777777777777 0.0
0.0016666666666666666 0.12833333333333333 0.0
0.0016666666666666666 0.1288888888888889 0.0
0.0016666666666666666 0.12944444444444445 0.0
0.0016666666666666666 0.13 0.0
0.0022222222222222222 0.0 0.0
0.0022222222222222222 0.0015384615384615385 0.0
0.0022222222222222222 0.003076923076923077 0.0
0.0022222222222222222 0.004615384615384615 0.0
0.0022222222222222222 0.006153846153846154 0.0
0.0022222222222222222 0.007692307692307693 0.0
0.0022222222222222222 0.00923076923076923 0.0
0.0022222222222222222 0.010769230769230769 0.0
0.0022222222222222222 0.012307692307692308 0.0
0.0022222222222222222 0.013846153846153847 0.0
0.0022222222222222222 0.015384615384615385 0.0
0.0022222222222222222 0.016923076923076923 0.0
0.0022222222222222222 0.01846153846153846 0.0
0.0022222222222222222 0.02 0.0
0.0022222222222222222 0.020555555555555556 0.0
0.0022222222222222222 0.021111111111111112 0.0
0.0022222222222222222 0.021666666666666667 0.0
0.0022222222222222222 0.022222222222222223 0.0
0.0022222222222222222 0.02277777777777778 0.0
0.0022222222222222222 0.023333333333333334 0.0
0.0022222222222222222 0.02388888888888889 0.0
0.0022222222222222222 0.024444444444444446 0.0
0.0022222222222222222 0.025 0.0
0.0022222222222222222 0.036111111111111115 0.0
0.0022222222222222222 0.04722222222222222 0.0
0.0022222222222222222 0.058333333333333334 0.0
0.0022222222222222222 0.06944444444444445 0.0
0.0022222222222222222 0.08055555555555556 0.0
0.0022222222222222222 0.09166666666666667 0.0
0.0022222222222222222 0.10277777777777777 0.0
0.0022222222222222222 0.1138888888888889 0.0
0.0022222222222222222 0.125 0.0
0.0022222222222222222 0.12555555555555556 0.0
0.0022222222222222222 0.12611111111111112 0.0
0.0022222222222222222 0.12666666666666668 0.0
0.0022222222222222222 0.1272222222222222 0.0
0.0022222222222222222 0.12777777777777777 0.0
0.0022222222222222222 0.12833333333333333 0.0
0.0022222222222222222 0.1288888888888889 0.0
0.0022222222222222222 0.12944444444444445 0.0
0.0022222222222222222 0.13 0.0
0.002777777777777778 0.0 0.0
0.002777777777777778 0.0015384615384615385 0.0
0.002777777777777778 0.003076923076923077 0.0
0.002777777777777778 0.004615384615384615 0.0
0.002777777777777778 0.006153846153846154 0.0
0.002777777777777778 0.007692307692307693 0.0
0.002777777777777778 0.00923076923076923 0.0
0.002777777777777778 0.010769230769230769 0.0
0.002777777777777778 0.012307692307692308 0.0
0.002777777777777778 0.013846153846153847 0.0
0.002777777777777778 0.015384615384615385 0.0
0.002777777777777778 0.016923076923076923 0.0
0.002777777777777778 0.01846153846153846 0.0
0.002777777777777778 0.02 0.0
0.002777777777777778 0.020555555555555556 0.0
0.002777777777777778 0.021111111111111112 0.0
0.002777777777777778 0.021666666666666667 0.0
0.002777777777777778 0.022222222222222223 0.0
0.002777777777777778 0.02277777777777778 0.0
0.002777777777777778 0.023333333333333334 0.0
0.002777777777777778 0.02388888888888889 0.0
0.002777777777777778 0.024444444444444446 0.0
0.002777777777777778 0.025 0.0
0.002777777777777778 0.036111111111111115 0.0
0.002777777777777778 0.04722222222222222 0.0
0.002777777777777778 0.058333333333333334 0.0
0.002777777777777778 0.06944444444444445 0.0
0.002777777777777778 0.08055555555555556 0.0
0.002777777777777778 0.09166666666666667 0.0
0.002777777777777778 0.10277777777777777 0.0
0.002777777777777778 0.1138888888888889 0.0
0.002777777777777778 0.125 0.0
0.002777777777777778 0.12555555555555556 0.0
0.002777777777777778 0.12611111111111112 0.0
[...]
POINT_DATA 1353
SCALARS Temperatura float 1
LOOKUP_TABLE default
97.38826088754226
96.85982522374623
96.33658014528335
95.8181466490496
95.30417508561786
94.7942362329488
94.28778059859947
93.78408697926469
93.28219339458529
92.78076606195249
92.27795877557749
91.77065411159322
91.25507810782938
90.71023678300378
90.00228094477465
89.33271480913031
88.67511358216113
88.02484485997364
87.37901540325035
86.73575548617953
86.0937159162791
85.45192671411118
84.80975968910963
73.59875438523457
69.52984674874905
68.33286429857719
67.92807069768762
67.79372889914153
67.71937051777628
67.60499561703561
67.24984144291932
66.29002741867558
66.23736761312725
66.18520825736904
66.13362264046683
66.08267015816185
66.03239846772256
65.98284513833536
65.93403869711229
65.88599915342132
65.83873817989709
97.41132529693004
96.88277968438084
96.3593977812222
95.84083296937959
95.32673609233362
94.81668102488045
94.31012092851634
93.80633963772516
93.30437858827676
92.8029314352472
92.30010429610395
91.79316946501554
91.27689397877204
90.74044202661358
90.06572416417569
89.39896891049223
88.74288732354005
88.09321635062683
87.4476127045838
86.80435150120516
86.16213717727831
85.52000901498347
84.87732904724287
73.6414341616302
69.57952253330875
68.38224760702977
67.97773834921641
67.84345012736422
67.76913068354666
67.65473440332585
67.30021181354068
66.33804305298729
66.28528414164593
66.23303435560669
66.18136579785755
66.13033679027247
66.0799941992384
66.0303751281866
65.98150790583182
65.93341250548667
65.88610062310686
97.43448606492481
96.90588930686928
96.38241287487766
95.86376125967476
95.34959431268598
94.83949362560983
94.33292148423536
93.82917437146766
93.3273160502152
92.82607035855118
92.32363364897274
91.81737939435205
91.30258892680085
90.77448950738199
90.11433450136418
89.45780180519107
88.80636796747406
88.15954269004557
87.51581775835659
86.87382854653482
86.23239973410331
85.59058119359165
84.94769347174957
73.6596869164545
69.6273449623069
68.43153490994791
68.02873788816048
67.89487489921615
67.82082936279711
67.70659318757114
67.35471339591666
66.38741881077098
66.33447143738046
66.28205833823196
66.23024760227705
66.17909403228938
66.12864199604243
66.07892720242569
66.02997744979882
65.98181267516735
65.93444469367918
97.4577724308758
96.92915499797367
96.40562451848012
95.88692957368093
95.3727468174237
94.86267005747739
94.3561764272152
93.85258379587647
93.35098992334382
92.85017566410512
92.34845695308321
91.84338892378621
91.33135004294455
90.81021137584946
90.16025197418755
89.51226586261595
88.86709190480701
88.22464599454331
87.58417792612238
86.94464237671421
86.3049650742413
85.6641589162501
85.02143323659315
73.65299929732099
69.67356834916464
68.4806576398709
68.08109553228518
67.94799754776504
67.87447617947228
67.76055200449007
67.41339009272775
66.43812723087653
66.38490603113252
66.33226108634192
66.28025263456104
66.2289289733617
66.1783302362016
66.12849012595703
66.07943600853463
66.03118814741882
65.98375879551389
97.48119941633824
96.95258015943863
96.42903083988006
95.91033458917808
95.39618872802316
94.8862035886853
94.3798764408572
93.87655420232359
93.37538009081071
92.87521337468486
92.37450973986182
91.87112260447023
91.36240937518677
90.84731161684063
90.20571339645673
89.56537057872333
88.92667678337251
88.28954492506422
87.65342896262085
87.0174529323312
86.38054886409576
85.7415889803898
85.09954201700216
73.6205148165043
69.71862799019281
68.52949680350615
68.13485600902555
68.00280663198701
67.93008646562892
67.8165752761013
67.47631350678185
66.49011979741256
66.43654761514881
66.38361082720205
66.33135593632981
66.27982082786889
66.22903985621959
66.17904496322632
66.12986409641344
66.08151887958002
66.03402267770738
97.50477482975938
96.97616715460715
96.45262929333762
95.93397153270324
95.41991324829812
94.9100849093895
94.40400862249871
93.90106698987593
93.40045894307815
92.9011371229381
92.40171999862706
91.90040559649167
91.39528038247069
90.88569680990761
90.25161901743883
89.61846583481433
88.98636541038755
88.35514906973403
87.72430856431737
87.09299517995828
86.46004197135618
85.82403125721845
85.18347669794596
73.56100556646491
69.7631560613292
68.57787553841486
68.1900855772379
68.05928362821807
67.98768221304107
67.8746104902794
67.54358488799387
66.54332390790523
66.4893389299462
66.43606529446164
66.38352612336223
66.33174358704085
66.28074593960366
66.23056562280551
66.18123396591042
66.13277587672589
66.08520691176695
97.52850207212676
96.99991644157181
96.47641635013197
95.95783421375556
95.44391171856631
94.93430225788008
94.428556758478
93.92609908606255
93.4261920015517
92.92789241447414
92.42999821498839
91.93104577739716
91.4296408530888
90.92529344442448
90.29836028576142
89.67222900647053
89.0468811091278
88.42209501013947
87.79738103422106
87.17191094473137
86.54437810899086
85.91291993227533
85.27524447588824
73.4728272514199
69.80800571717936
68.62554798184627
68.24687654315059
68.11740097117448
68.04729348878617
67.93458623942516
67.61533811548104
66.59763785923958
66.5432063787824
66.48957717168857
66.43673165932017
66.38467082348215
66.33341949142562
66.28301908366622
66.23350905383008
66.1849202963329
66.13727190221066
97.55238142754547
97.02382647755827
96.50038724663699
95.98191503641968
95.46817369558094
94.95884158228164
94.45350164326793
93.95162339485545
93.45253926413424
92.95541768674084
92.4592429053667
91.96286115225615
91.46525571258218
90.96601365539738
90.34608754160286
89.72696866941382
89.10857631923946
88.49069214780955
87.87289952159887
87.25449148622607
86.6342859563858
86.00984307964643
85.37755356708836
73.35384951394038
69.85428603355471
68.6721835080421
68.30535362866563
68.17711929198842
68.1089604172063
67.99640946481973
67.69174410320899
66.65292265166144
66.59806394875059
66.54410383897321
66.4909586893551
66.43858012920094
66.38702820214522
66.33636457474822
66.28664259102324
66.23790187460571
66.1901662750173
97.57641075624089
97.04789383735019
96.52453586421096
96.00620500906476
95.4926870506875
94.98368673274129
94.47882141450202
93.97760938990167
93.47945637838869
92.98364582365926
92.48934713917824
91.99568485422385
91.50193496471482
91.00775070813171
90.39481186642202
89.78276719478924
89.17153130305265
88.56094215175055
87.95072755256867
87.34045346971894
86.72939376018412
86.11639619031453
85.49407285489438
73.2013478560963
69.90341219512324
68.71734481788755
68.36568274239356
68.23838364382969
68.17273580483811
68.05996195277949
67.77301619064119
66.7089926082818
66.65374568470364
66.59971305539614
66.54621677439971
66.49345366436707
66.44153421983147
66.39055094192678
66.34057507903675
66.29165657724232
66.24382460080531
97.60058592895797
97.07211338324402
96.54885470689807
96.03069377215871
95.51743808254102
95.00881967233661
94.50449191270967
94.00402375577364
93.5068957324734
93.01250609010596
92.52020284780014
92.02936287903984
91.53951139318434
91.05038137758912
90.44445907003342
89.83956397481452
89.23563715187454
88.63260220973089
88.0303714526695
87.42886947646898
86.8280911028226
86.22822293001668
71.0547372111297
71.0547372111297
71.0547372111297
71.0547372111297
71.0547372111297
71.0547372111297
71.0547372111297
71.0547372111297
71.0547372111297
71.0547372111297
66.71096492804712
66.65650629871081
66.6025320736936
66.54926926332692
66.49688771021401
66.4455118622511
66.39523064903152
66.34610360555017
66.29816461103147
98.0781480501217
97.5510948275155
97.03136917497612
96.51903987351018
96.01422383488665
95.51709729103123
95.02791380831631
94.5470303573292
94.07494276204851
93.61233164245273
93.1601187733114
92.71953280675137
92.29219097086923
91.8802305877287
91.38155354109759
90.88679721243273
90.39653972660474
89.91139546617863
89.4320214460136
88.95911971076802
88.49343118319379
88.03571281258557
71.0547372111297
71.0547372111297
71.0547372111297
71.0547372111297
71.0547372111297
71.0547372111297
71.0547372111297
71.0547372111297
71.0547372111297
71.0547372111297
67.80081827333548
67.71773986418796
67.63985265116384
67.56690305857809
67.4986884986456
67.43505066130307
67.37587013633093
67.3210627467032
67.2705771444248
98.51787598181498
97.99177760420288
97.4741857151569
96.96514847610037
96.46474084447134
95.97306287792843
95.49023615446285
95.0163971944795
94.55168625221665
94.09622921183502
93.6501097038725
93.2133275800793
92.78573611682128
92.36694005894232
91.85355396605027
91.34205686612675
90.83225338900334
90.32392307940026
89.81681341956958
89.31063331804857
88.80504819172646
88.29967878441101
71.0547372111297
71.0547372111297
71.0547372111297
71.0547372111297
71.0547372111297
71.0547372111297
71.0547372111297
71.0547372111297
71.0547372111297
71.0547372111297
68.0976296599544
68.03362529803532
67.97136969063784
67.91099765617184
67.85261537146881
67.79630435918499
67.74212461852734
67.69011686318105
67.64030403364707
98.86676967932458
98.34093553418366
97.82354790503729
97.314614755206
96.8141436303807
96.32214014701616
95.83860609838884
95.36353744658008
94.8969226976067
94.43874251206341
93.9889719044312
93.54758720348693
93.11458187574425
92.68999970351959
92.16959552698526
91.65136270200232
91.13534798858493
90.62160815069899
90.11021348518999
89.60125153497196
89.09483075992316
88.59108365932856
71.0547372111297
71.0547372111297
71.0547372111297
71.0547372111297
71.0547372111297
71.0547372111297
71.0547372111297
71.0547372111297
71.0547372111297
71.0547372111297
68.20709058002653
68.14274164295763
68.08055667777718
68.02049151053029
67.9625121132221
67.9065926573453
67.85271400918883
67.80086264353449
67.75102990693334
99.12008402803423
98.59431317272407
98.07669608772619
97.56723602371035
97.0659340289626
96.57278912595748
96.08779859077401
95.61095834925726
95.14226345590085
94.68170851998595
94.22928776233645
93.78499404365739
93.34881542165672
92.92072605263088
92.39565698543927
91.87264155508842
91.35166407244456
90.83270529683539
90.31574103668767
89.80074058104398
89.28766498685616
88.77646532022986
71.0547372111297
71.0547372111297
71.0547372111297
71.0547372111297
71.0547372111297
71.0547372111297
71.0547372111297
71.0547372111297
71.0547372111297
71.0547372111297
68.24027161855008
68.17734920750854
68.11627483862549
68.05706245605843
67.99972206556609
67.94426053752748
67.89068221767465
67.83898936618236
67.78918245396206
99.29012586061175
98.76438707695897
98.24658597684532
97.73672612997906
97.23480911394125
96.7408344866609
96.25479972915149
95.77670014053507
95.30652867224403
94.84427570760731
94.38992883909425
93.94347280126799
93.50488998282196
93.0741625628438
92.54567817696955
92.01923596342488
91.49483593475502
90.97247915882996
90.45216825476531
89.9339079763243
89.41770589055218
88.90357314157855
71.0547372111297
71.0547372111297
71.0547372111297
71.0547372111297
71.0547372111297
71.0547372111297
71.0547372111297
71.0547372111297
71.0547372111297
71.0547372111297
68.25162492507891
68.18880408105738
68.12785630973153
68.06877571491809
68.01155758177461
67.95619806985464
67.90269398346906
67.85104260808032
67.80124160086352
99.38781716880196
98.86209547798465
98.34418456321359
97.83408791049266
97.3318070379284
96.83734149463956
96.35068886609582
95.87184479330693
95.40080301494504
94.93755544044129
94.48209225398692
94.0344020219152
93.59447169256279
93.16228616045373
92.63191606852132
92.10357191773603
91.57725050553114
91.0529482311239
90.53066092049082
90.0103836107426
89.49211028559849
88.97583355753709
71.0547372111297
71.0547372111297
71.0547372111297
71.0547372111297
71.0547372111297
71.0547372111297
71.0547372111297
71.0547372111297
71.0547372111297
71.0547372111297
68.25510819803971
68.19240533561485
68.13154818796254
68.07253658261256
68.01536987115348
67.96004704696982
67.90656683163073
67.85492773558798
67.8051280982992
99.41966653843467
98.89395022173163
98.37600293588928
97.86582822049864
97.36342771373619
96.86880115977115
96.38194641738356
95.90285946617139
95.43153440485368
94.96796343478559
94.51213682312459
94.0640428510388
93.62366779419403
93.1909961035152
92.659995097444
92.13101579180865
91.60405601786992
91.07911374857656
90.55618719902516
90.0352749538879
89.51637612874562
88.99949057098642
71.0547372111297
71.0547372111297
71.0547372111297
71.0547372111297
71.0547372111297
71.0547372111297
71.0547372111297
71.0547372111297
71.0547372111297
71.0547372111297
68.25592390583238
68.19322838729231
68.13238171105785
68.07338146848714
68.01622546127064
67.96091162984357
67.90743800154999
67.85580265460138
67.80600369447998
99.38781716880253
98.86209547798522
98.34418456321413
97.83408791049317
97.33180703792884
96.83734149463994
96.35068886609619
95.87184479330735
95.40080301494548
94.93755544044173
94.48209225398739
94.03440202191568
93.59447169256329
93.16228616045424
92.63191606852189
92.10357191773659
91.57725050553167
91.05294823112435
90.53066092049123
90.010383610743
89.49211028559891
88.97583355753754
71.0547372111297
71.0547372111297
71.0547372111297
71.0547372111297
71.0547372111297
71.0547372111297
71.0547372111297
71.0547372111297
71.0547372111297
71.0547372111297
68.25510819804039
68.19240533561555
68.13154818796323
68.07253658261325
68.01536987115418
67.96004704697054
67.90656683163147
67.8549277355887
67.80512809829993
99.29012586061263
98.76438707695986
98.24658597684619
97.7367261299799
97.23480911394208
96.74083448666171
96.25479972915227
95.77670014053585
95.30652867224477
94.84427570760803
94.38992883909499
93.94347280126873
93.5048899828227
93.07416256284456
92.5456781769703
92.0192359634256
91.49483593475576
90.97247915883071
90.45216825476611
89.93390797632512
89.41770589055301
88.90357314157932
71.0547372111297
71.0547372111297
71.0547372111297
71.0547372111297
71.0547372111297
71.0547372111297
71.0547372111297
71.0547372111297
71.0547372111297
71.0547372111297
68.25162492508048
68.18880408105898
68.12785630973318
68.06877571491978
68.0115575817763
67.95619806985633
67.90269398347075
67.85104260808204
67.80124160086525
99.12008402803485
98.59431317272467
98.07669608772676
97.56723602371088
97.0659340289631
96.57278912595795
96.08779859077443
95.61095834925764
95.14226345590122
94.68170851998634
94.22928776233692
93.78499404365789
93.34881542165728
92.92072605263145
92.39565698543987
91.872641555089
91.35166407244513
90.83270529683591
90.31574103668808
89.80074058104431
89.28766498685643
88.7764653202301
71.0547372111297
71.0547372111297
71.0547372111297
71.0547372111297
71.0547372111297
71.0547372111297
71.0547372111297
71.0547372111297
71.0547372111297
71.0547372111297
68.24027161855406
68.17734920751263
68.11627483862965
68.05706245606261
67.99972206557027
67.94426053753162
67.89068221767869
67.83898936618628
67.78918245396595
98.86676967932499
98.3409355341841
97.82354790503777
97.3146147552065
96.8141436303812
96.32214014701667
95.83860609838933
95.3635374465806
94.89692269760724
94.43874251206395
93.98897190443171
93.54758720348742
93.1145818757447
92.68999970352003
92.16959552698573
91.65136270200274
91.13534798858534
90.62160815069946
90.11021348519057
89.60125153497259
89.09483075992378
88.59108365932919
71.0547372111297
71.0547372111297
71.0547372111297
71.0547372111297
71.0547372111297
71.0547372111297
71.0547372111297
71.0547372111297
71.0547372111297
71.0547372111297
68.20709058002976
68.14274164296091
68.08055667778054
68.02049151053372
67.96251211322559
67.90659265734884
67.85271400919243
67.80086264353814
67.75102990693702
98.51787598181464
97.99177760420253
97.47418571515654
96.96514847609997
96.46474084447095
95.97306287792809
95.49023615446251
95.01639719447914
94.5516862522163
94.09622921183471
93.6501097038723
93.21332758007915
92.78573611682116
92.3669400589422
91.85355396605016
91.34205686612667
90.83225338900327
90.32392307940022
89.81681341956947
89.31063331804842
88.80504819172627
88.29967878441077
71.0547372111297
71.0547372111297
71.0547372111297
71.0547372111297
71.0547372111297
71.0547372111297
71.0547372111297
71.0547372111297
71.0547372111297
71.0547372111297
68.09762965995682
68.03362529803776
67.97136969064027
67.91099765617427
67.85261537147126
67.79630435918743
67.74212461852973
67.69011686318339
67.64030403364943
98.07814805012096
97.55109482751479
97.0313691749754
96.51903987350944
96.01422383488591
95.51709729103054
95.02791380831567
94.54703035732858
94.07494276204791
93.61233164245216
93.16011877331091
92.71953280675098
92.29219097086886
91.88023058772838
91.38155354109735
90.8867972124325
90.39653972660452
89.9113954661784
89.4320214460134
88.95911971076778
88.49343118319351
88.03571281258526
71.0547372111297
71.0547372111297
71.0547372111297
71.0547372111297
71.0547372111297
71.0547372111297
71.0547372111297
71.0547372111297
71.0547372111297
71.0547372111297
67.80081827333711
67.71773986418964
67.63985265116558
67.56690305857987
67.4986884986474
67.43505066130486
67.37587013633274
67.32106274670505
67.27057714442664
97.60058592895697
97.07211338324302
96.5488547068972
96.03069377215799
95.51743808254047
95.00881967233614
94.50449191270924
94.00402375577325
93.50689573247297
93.01250609010555
92.52020284779971
92.02936287903934
91.53951139318393
91.05038137758879
90.4444590700332
89.83956397481444
89.2356371518746
88.6326022097311
88.03037145266981
87.4288694764694
86.82809110282308
86.22822293001718
71.0547372111297
71.0547372111297
71.0547372111297
71.0547372111297
71.0547372111297
71.0547372111297
71.0547372111297
71.0547372111297
71.0547372111297
71.0547372111297
66.71096492804892
66.65650629871266
66.60253207369546
66.54926926332882
66.49688771021596
66.44551186225306
66.39523064903345
66.34610360555206
66.29816461103337
97.5764107562398
97.04789383734914
96.52453586421016
96.00620500906402
95.49268705068701
94.98368673274081
94.47882141450158
93.97760938990135
93.47945637838826
92.98364582365885
92.48934713917778
91.99568485422333
91.50193496471442
91.00775070813143
90.39481186642179
89.78276719478926
89.17153130305277
88.56094215175075
87.95072755256905
87.34045346971939
86.7293937601846
86.11639619031507
85.49407285489495
73.20134785609808
69.90341219512312
68.71734481788754
68.3656827423948
68.23838364383023
68.17273580483877
68.05996195278024
67.77301619064019
66.70899260828351
66.65374568470538
66.59971305539794
66.54621677440154
66.49345366436893
66.44153421983337
66.3905509419287
66.34057507903866
66.29165657724423
66.24382460080714
97.55238142754433
97.02382647755724
96.50038724663615
95.98191503641898
95.46817369558046
94.95884158228118
94.4535016432675
93.9516233948551
93.45253926413383
92.95541768674043
92.45924290536624
91.96286115225568
91.46525571258182
90.96601365539705
90.34608754160273
89.72696866941382
89.10857631923957
88.49069214780972
87.8728995215992
87.2544914862265
86.63428595638638
86.00984307964704
85.377553567089
73.35384951394224
69.8542860335546
68.6721835080422
68.30535362866692
68.17711929198904
68.10896041720686
67.99640946482052
67.691744103208
66.65292265166318
66.59806394875237
66.544103838975
66.49095868935689
66.43858012920276
66.38702820214704
66.33636457475006
66.28664259102506
66.23790187460753
66.19016627501912
97.5285020721256
96.99991644157073
96.4764163501311
95.95783421375484
95.44391171856577
94.93430225787962
94.42855675847755
93.92609908606217
93.42619200155127
92.9278924144737
92.42999821498792
91.93104577739676
91.42964085308842
90.92529344442424
90.29836028576126
89.67222900647052
89.04688110912785
88.42209501013969
87.79738103422143
87.17191094473185
86.54437810899145
85.91291993227603
85.27524447588898
73.47282725142183
69.80800571717938
68.62554798184644
68.2468765431519
68.11740097117502
68.04729348878678
67.93458623942594
67.61533811548001
66.59763785924135
66.54320637878416
66.48957717169033
66.43673165932194
66.38467082348396
66.33341949142739
66.28301908366798
66.23350905383181
66.18492029633462
66.13727190221233
97.50477482975826
96.97616715460613
96.45262929333671
95.93397153270254
95.41991324829752
94.91008490938903
94.4040086224983
93.90106698987553
93.40045894307774
92.90113712293764
92.40171999862663
91.90040559649127
91.3952803824703
90.88569680990746
90.25161901743876
89.61846583481439