# vtk DataFile Version 2.0
Niestacjonarne zagadnienie cieplne - ogrzewanie wody w garnku stalowym
ASCII
DATASET UNSTRUCTURED_GRID
POINTS 1353 float
0.0 0.0 0.0
0.0 0.0015384615384615385 0.0
0.0 0.003076923076923077 0.0
0.0 0.004615384615384615 0.0
0.0 0.006153846153846154 0.0
0.0 0.007692307692307693 0.0
0.0 0.00923076923076923 0.0
0.0 0.010769230769230769 0.0
0.0 0.012307692307692308 0.0
0.0 0.013846153846153847 0.0
0.0 0.015384615384615385 0.0
0.0 0.016923076923076923 0.0
0.0 0.01846153846153846 0.0
0.0 0.02 0.0
0.0 0.020555555555555556 0.0
0.0 0.021111111111111112 0.0
0.0 0.021666666666666667 0.0
0.0 0.022222222222222223 0.0
0.0 0.02277777777777778 0.0
0.0 0.023333333333333334 0.0
0.0 0.02388888888888889 0.0
0.0 0.024444444444444446 0.0
0.0 0.025 0.0
0.0 0.036111111111111115 0.0
0.0 0.04722222222222222 0.0
0.0 0.058333333333333334 0.0
0.0 0.06944444444444445 0.0
0.0 0.08055555555555556 0.0
0.0 0.09166666666666667 0.0
0.0 0.10277777777777777 0.0
0.0 0.1138888888888889 0.0
0.0 0.125 0.0
0.0 0.12555555555555556 0.0
0.0 0.12611111111111112 0.0
0.0 0.12666666666666668 0.0
0.0 0.1272222222222222 0.0
0.0 0.12777777777777777 0.0
0.0 0.12833333333333333 0.0
0.0 0.1288888888888889 0.0
0.0 0.12944444444444445 0.0
0.0 0.13 0.0
5.555555555555556E-4 0.0 0.0
5.555555555555556E-4 0.0015384615384615385 0.0
5.555555555555556E-4 0.003076923076923077 0.0
5.555555555555556E-4 0.004615384615384615 0.0
5.555555555555556E-4 0.006153846153846154 0.0
5.555555555555556E-4 0.007692307692307693 0.0
5.555555555555556E-4 0.00923076923076923 0.0
5.555555555555556E-4 0.010769230769230769 0.0
5.555555555555556E-4 0.012307692307692308 0.0
5.555555555555556E-4 0.013846153846153847 0.0
5.555555555555556E-4 0.015384615384615385 0.0
5.555555555555556E-4 0.016923076923076923 0.0
5.555555555555556E-4 0.01846153846153846 0.0
5.555555555555556E-4 0.02 0.0
5.555555555555556E-4 0.020555555555555556 0.0
5.555555555555556E-4 0.021111111111111112 0.0
5.555555555555556E-4 0.021666666666666667 0.0
5.555555555555556E-4 0.022222222222222223 0.0
5.555555555555556E-4 0.02277777777777778 0.0
5.555555555555556E-4 0.023333333333333334 0.0
5.555555555555556E-4 0.02388888888888889 0.0
5.555555555555556E-4 0.024444444444444446 0.0
5.555555555555556E-4 0.025 0.0
5.555555555555556E-4 0.036111111111111115 0.0
5.555555555555556E-4 0.04722222222222222 0.0
5.555555555555556E-4 0.058333333333333334 0.0
5.555555555555556E-4 0.06944444444444445 0.0
5.555555555555556E-4 0.08055555555555556 0.0
5.555555555555556E-4 0.09166666666666667 0.0
5.555555555555556E-4 0.10277777777777777 0.0
5.555555555555556E-4 0.1138888888888889 0.0
5.555555555555556E-4 0.125 0.0
5.555555555555556E-4 0.12555555555555556 0.0
5.555555555555556E-4 0.12611111111111112 0.0
5.555555555555556E-4 0.12666666666666668 0.0
5.555555555555556E-4 0.1272222222222222 0.0
5.555555555555556E-4 0.12777777777777777 0.0
5.555555555555556E-4 0.12833333333333333 0.0
5.555555555555556E-4 0.1288888888888889 0.0
5.555555555555556E-4 0.12944444444444445 0.0
5.555555555555556E-4 0.13 0.0
0.0011111111111111111 0.0 0.0
0.0011111111111111111 0.0015384615384615385 0.0
0.0011111111111111111 0.003076923076923077 0.0
0.0011111111111111111 0.004615384615384615 0.0
0.0011111111111111111 0.006153846153846154 0.0
0.0011111111111111111 0.007692307692307693 0.0
0.0011111111111111111 0.00923076923076923 0.0
0.0011111111111111111 0.010769230769230769 0.0
0.0011111111111111111 0.012307692307692308 0.0
0.0011111111111111111 0.013846153846153847 0.0
0.0011111111111111111 0.015384615384615385 0.0
0.0011111111111111111 0.016923076923076923 0.0
0.0011111111111111111 0.01846153846153846 0.0
0.0011111111111111111 0.02 0.0
0.0011111111111111111 0.020555555555555556 0.0
0.0011111111111111111 0.021111111111111112 0.0
0.0011111111111111111 0.021666666666666667 0.0
0.0011111111111111111 0.022222222222222223 0.0
0.0011111111111111111 0.02277777777777778 0.0
0.0011111111111111111 0.023333333333333334 0.0
0.0011111111111111111 0.02388888888888889 0.0
0.0011111111111111111 0.024444444444444446 0.0
0.0011111111111111111 0.025 0.0
0.0011111111111111111 0.036111111111111115 0.0
0.0011111111111111111 0.04722222222222222 0.0
0.0011111111111111111 0.058333333333333334 0.0
0.0011111111111111111 0.06944444444444445 0.0
0.0011111111111111111 0.08055555555555556 0.0
0.0011111111111111111 0.09166666666666667 0.0
0.0011111111111111111 0.10277777777777777 0.0
0.0011111111111111111 0.1138888888888889 0.0
0.0011111111111111111 0.125 0.0
0.0011111111111111111 0.12555555555555556 0.0
0.0011111111111111111 0.12611111111111112 0.0
0.0011111111111111111 0.12666666666666668 0.0
0.0011111111111111111 0.1272222222222222 0.0
0.0011111111111111111 0.12777777777777777 0.0
0.0011111111111111111 0.12833333333333333 0.0
0.0011111111111111111 0.1288888888888889 0.0
0.0011111111111111111 0.12944444444444445 0.0
0.0011111111111111111 0.13 0.0
0.0016666666666666666 0.0 0.0
0.0016666666666666666 0.0015384615384615385 0.0
0.0016666666666666666 0.003076923076923077 0.0
0.0016666666666666666 0.004615384615384615 0.0
0.0016666666666666666 0.006153846153846154 0.0
0.0016666666666666666 0.007692307692307693 0.0
0.0016666666666666666 0.00923076923076923 0.0
0.0016666666666666666 0.010769230769230769 0.0
0.0016666666666666666 0.012307692307692308 0.0
0.0016666666666666666 0.013846153846153847 0.0
0.0016666666666666666 0.015384615384615385 0.0
0.0016666666666666666 0.016923076923076923 0.0
0.0016666666666666666 0.01846153846153846 0.0
0.0016666666666666666 0.02 0.0
0.0016666666666666666 0.020555555555555556 0.0
0.0016666666666666666 0.021111111111111112 0.0
0.0016666666666666666 0.021666666666666667 0.0
0.0016666666666666666 0.022222222222222223 0.0
0.0016666666666666666 0.02277777777777778 0.0
0.0016666666666666666 0.023333333333333334 0.0
0.0016666666666666666 0.02388888888888889 0.0
0.0016666666666666666 0.024444444444444446 0.0
0.0016666666666666666 0.025 0.0
0.0016666666666666666 0.036111111111111115 0.0
0.0016666666666666666 0.04722222222222222 0.0
0.0016666666666666666 0.058333333333333334 0.0
0.0016666666666666666 0.06944444444444445 0.0
0.0016666666666666666 0.08055555555555556 0.0
0.0016666666666666666 0.09166666666666667 0.0
0.0016666666666666666 0.10277777777777777 0.0
0.0016666666666666666 0.1138888888888889 0.0
0.0016666666666666666 0.125 0.0
0.0016666666666666666 0.12555555555555556 0.0
0.0016666666666666666 0.12611111111111112 0.0
0.0016666666666666666 0.12666666666666668 0.0
0.0016666666666666666 0.1272222222222222 0.0
0.0016666666666666666 0.12777777777777777 0.0
0.0016666666666666666 0.12833333333333333 0.0
0.0016666666666666666 0.1288888888888889 0.0
0.0016666666666666666 0.12944444444444445 0.0
0.0016666666666666666 0.13 0.0
0.0022222222222222222 0.0 0.0
0.0022222222222222222 0.0015384615384615385 0.0
0.0022222222222222222 0.003076923076923077 0.0
0.0022222222222222222 0.004615384615384615 0.0
0.0022222222222222222 0.006153846153846154 0.0
0.0022222222222222222 0.007692307692307693 0.0
0.0022222222222222222 0.00923076923076923 0.0
0.0022222222222222222 0.010769230769230769 0.0
0.0022222222222222222 0.012307692307692308 0.0
0.0022222222222222222 0.013846153846153847 0.0
0.0022222222222222222 0.015384615384615385 0.0
0.0022222222222222222 0.016923076923076923 0.0
0.0022222222222222222 0.01846153846153846 0.0
0.0022222222222222222 0.02 0.0
0.0022222222222222222 0.020555555555555556 0.0
0.0022222222222222222 0.021111111111111112 0.0
0.0022222222222222222 0.021666666666666667 0.0
0.0022222222222222222 0.022222222222222223 0.0
0.0022222222222222222 0.02277777777777778 0.0
0.0022222222222222222 0.023333333333333334 0.0
0.0022222222222222222 0.02388888888888889 0.0
0.0022222222222222222 0.024444444444444446 0.0
0.0022222222222222222 0.025 0.0
0.0022222222222222222 0.036111111111111115 0.0
0.0022222222222222222 0.04722222222222222 0.0
0.0022222222222222222 0.058333333333333334 0.0
0.0022222222222222222 0.06944444444444445 0.0
0.0022222222222222222 0.08055555555555556 0.0
0.0022222222222222222 0.09166666666666667 0.0
0.0022222222222222222 0.10277777777777777 0.0
0.0022222222222222222 0.1138888888888889 0.0
0.0022222222222222222 0.125 0.0
0.0022222222222222222 0.12555555555555556 0.0
0.0022222222222222222 0.12611111111111112 0.0
0.0022222222222222222 0.12666666666666668 0.0
0.0022222222222222222 0.1272222222222222 0.0
0.0022222222222222222 0.12777777777777777 0.0
0.0022222222222222222 0.12833333333333333 0.0
0.0022222222222222222 0.1288888888888889 0.0
0.0022222222222222222 0.12944444444444445 0.0
0.0022222222222222222 0.13 0.0
0.002777777777777778 0.0 0.0
0.002777777777777778 0.0015384615384615385 0.0
0.002777777777777778 0.003076923076923077 0.0
0.002777777777777778 0.004615384615384615 0.0
0.002777777777777778 0.006153846153846154 0.0
0.002777777777777778 0.007692307692307693 0.0
0.002777777777777778 0.00923076923076923 0.0
0.002777777777777778 0.010769230769230769 0.0
0.002777777777777778 0.012307692307692308 0.0
0.002777777777777778 0.013846153846153847 0.0
0.002777777777777778 0.015384615384615385 0.0
0.002777777777777778 0.016923076923076923 0.0
0.002777777777777778 0.01846153846153846 0.0
0.002777777777777778 0.02 0.0
0.002777777777777778 0.020555555555555556 0.0
0.002777777777777778 0.021111111111111112 0.0
0.002777777777777778 0.021666666666666667 0.0
0.002777777777777778 0.022222222222222223 0.0
0.002777777777777778 0.02277777777777778 0.0
0.002777777777777778 0.023333333333333334 0.0
0.002777777777777778 0.02388888888888889 0.0
0.002777777777777778 0.024444444444444446 0.0
0.002777777777777778 0.025 0.0
0.002777777777777778 0.036111111111111115 0.0
0.002777777777777778 0.04722222222222222 0.0
0.002777777777777778 0.058333333333333334 0.0
0.002777777777777778 0.06944444444444445 0.0
0.002777777777777778 0.08055555555555556 0.0
0.002777777777777778 0.09166666666666667 0.0
0.002777777777777778 0.10277777777777777 0.0
0.002777777777777778 0.1138888888888889 0.0
0.002777777777777778 0.125 0.0
0.002777777777777778 0.12555555555555556 0.0
0.002777777777777778 0.12611111111111112 0.0
[...]
POINT_DATA 1353
SCALARS Temperatura float 1
LOOKUP_TABLE default
76.90333079332757
76.35847465864683
75.81974056517443
75.28676728087267
74.75923582687366
74.23676324243698
73.7188664310073
73.20491867562416
72.69409313096237
72.18526040827788
71.67687620979422
71.16642704790644
70.6508433190976
70.1147663998029
69.42717311723729
68.76703041816423
68.11544755349735
67.46898491378464
66.82544146830696
66.18335394251082
65.54165099927857
64.89956789545673
64.25663796836675
52.99501430011607
48.90463889903886
47.702248711178356
47.29659605212781
47.16529529267186
47.10249782436074
47.023130883665694
46.7865254825944
46.15363623482507
46.120311539260406
46.087568990378585
46.05549241133524
46.02415503911814
45.99361915994075
45.963935854835746
45.93514481673236
45.90727421576049
45.88034060435117
76.92029934220167
76.37532801578429
75.83645139073741
75.30334053590151
74.77567680936716
74.25308006453606
73.73506945087543
73.2210222738268
72.71011467582015
72.20123745573271
71.69281359811133
71.18260684937862
70.66651638883009
70.13636982229688
69.47222859266498
68.81396791694429
68.1633508791729
67.51719832916793
66.8736957144765
66.23147694495837
65.58950102072335
64.94700031973603
64.30349110967134
53.01666610626582
48.933354834249066
47.73066488302689
47.325298448815786
47.19404981229078
47.131283728067494
47.051900684163755
46.81573757100822
46.181156076763976
46.14774924498029
46.11493021941403
46.08278316140309
46.05138155574843
46.02078787194983
45.99105333026611
45.96221773004756
45.934309317817586
45.90734469066845
76.93736603140205
76.3923376081278
75.85335856366845
75.32015081700067
74.79240424323912
74.26974558685599
73.75170169774465
73.23766024315569
72.72681496330601
72.21808040929612
71.70994669355447
71.20025337230273
70.68526897404905
70.16110316753966
69.50733523598923
68.85636820554589
68.20909220886968
67.56499853546768
66.9228551796117
66.28153542403362
65.64006035603767
64.99764059560898
64.35373087541761
53.01396990396486
48.960476476800224
47.759240267769385
47.35559355129814
47.22475976286485
47.16222049081078
47.08294454782115
46.84860712783845
46.21022798516587
46.176642477466196
46.143660678677506
46.11136756621441
46.079837189680084
46.04913241867888
46.01930477598098
45.99039429798124
45.9624294059673
45.93542680000571
76.95456037496909
76.4095046274442
75.87046149404082
75.33719655610489
74.8094156850833
74.28675647313125
73.76875833832827
73.25482642846224
72.74418153464964
72.23578255352255
71.72820963894118
71.2194382017984
70.7065215645104
70.18743953418382
69.54109935008994
68.89639502077067
68.25376431286104
67.61298093202079
66.9733362013542
66.33390419051366
65.69373825691572
65.05197042147232
64.4079167510086
52.98641367143645
48.986259180911
47.787906307574275
47.3875078297655
47.25742034055261
47.195316206862785
47.11624944686704
46.88516500262823
46.24083913624571
46.20697728248503
46.17374562705404
46.141230353538035
46.10950629340401
46.0786368599329
46.0486740126717
46.01965816105482
45.99161801336195
45.96457044018339
76.97189784905451
76.4268329472875
75.887758835319
75.35447505811082
74.82670705231108
74.3041070752928
73.7862315974324
73.27250956526413
72.76219808252593
72.25431707374912
71.74755312153373
71.24010296108031
70.72972514491997
70.21516770767018
69.57510251785091
68.93617684794023
68.29851377285458
67.6618803388384
67.02569760607483
66.38912769707274
65.75117290589948
65.11078455590025
64.46700929647353
52.93314266235347
49.01113991889502
47.81654381780181
47.42108624972742
47.29202141887773
47.23058337958613
47.15179156975983
46.925460745538395
46.272966641461316
46.23872900746526
46.205159267765296
46.17234502172788
46.140361876124096
46.109273775013236
46.07913323376278
46.04998121230674
46.021846858590436
45.99474729064014
76.98938689240794
76.44432558489765
75.90524876960795
75.37198241561062
74.84427264672958
74.32178956374075
73.80411069192692
73.29069431031215
72.78084218280071
72.27364730981395
71.76792102101764
71.26211700081043
70.75452702977951
70.24421246853639
69.6099702049676
68.97665594525523
68.34421001388064
67.71234266088443
67.08049279527633
66.44781148199526
65.81316361096721
65.17517866464968
64.53242244466512
52.85293058980403
49.035753329083455
47.84497549971522
47.45639528343986
47.32854631559206
47.26803966091117
47.18953548927173
46.969563539772444
46.30657685041362
46.2718616196453
46.237864263083935
46.20467368702528
46.17236559505763
46.14100424825425
46.1106428990297
46.081323464353126
46.05307570980118
46.02591706784683
77.00703170617787
76.4619838280399
75.92292869011469
75.38971353185859
74.86210518913003
74.33979402545066
73.8223820402944
73.30936156179061
72.80008576972786
72.29372981504062
71.7892434290856
71.2853355414996
70.78068760161386
70.27450611136088
69.64595699287011
69.01828335585417
68.39133406393938
67.76479328826571
67.13811961639601
66.51047003373655
65.8805482110533
65.24651631444179
64.60611339383976
52.74413407850825
49.06095598724958
47.872954757673305
47.493527406163366
47.36696994915618
47.30770894330656
47.229432962242534
47.01756352992694
46.341624368832115
46.30632616545502
46.27181101831845
46.23816706190766
46.20546823406194
46.1737777573694
46.143151526893966
46.113632840621825
46.08525219680594
46.05802734700178
77.0248335371937
76.47980713147138
75.94079493925298
75.40766211818695
74.8801958766287
74.35810858894098
73.84102950760312
73.32848880507666
72.81989612975211
72.3145151630051
71.81144065362746
71.30961912266123
70.80802578008058
70.30596472820635
69.68313555057642
69.06123117036726
68.44007681966932
67.81938351031405
67.19869146149436
66.57727677784956
65.95396190100605
65.32631305857609
64.69073600768903
52.60462245430512
49.087861522439454
47.90014988254086
47.532607430280954
47.40725624572997
47.34962286676599
47.27142132921701
47.06957353816753
46.378050928299594
46.342056976420885
46.306933844202185
46.27276924265179
46.23960946650056
46.20753176247116
46.17659530849885
46.14684488495361
46.118311587969835
46.091013362628345
77.04279136235496
76.4977932260516
75.95884267691102
75.42582068726595
74.89853445547912
74.37671957346562
73.8600346656566
73.34805056699217
72.84023678108262
72.33594909054206
71.83442793569694
71.33483727134066
70.83638959846293
70.33848579246309
69.72146947220962
69.10549359543825
68.49040702896389
67.87599675374157
67.26195796458076
66.64784339179671
66.03293204789328
65.41610656735102
64.78990203492133
52.43166942817539
49.117890913080785
47.9261221034737
47.57380121685846
47.44935460926534
47.39382275312044
47.315421760221604
47.125730078317176
46.415788297281225
46.378898318449096
46.34319925228753
46.30841335348283
46.274716553519276
46.24219074613644
46.210897545683075
46.18088242554748
46.15217657817035
46.124797836149
77.06090231327018
76.51593827818682
75.97706584515866
75.44418056285748
74.91710930623029
74.39561165432296
73.87937707434828
73.3680189091845
72.86106830245292
72.35797394870933
71.85811861814743
71.3608670974635
70.86564090888456
70.37195105137887
69.76085398953717
69.15094988782573
68.54213588510393
67.9343006757499
67.32733376498507
66.721151474687
66.11575685150711
65.51136248628266
49.64078089401446
49.64078089401446
49.64078089401446
49.64078089401446
49.64078089401446
49.64078089401446
49.64078089401446
49.64078089401446
49.64078089401446
49.64078089401446
46.417150913911335
46.38053142361807
46.34501648202931
46.31070139046057
46.27766499465094
46.24596804126527
46.21565528988533
46.18675716798773
46.15929090618435
77.42549476616075
76.88171647722758
76.34585570097538
75.81797215160167
75.29816628956883
74.78658891795938
74.28345683459898
73.78907569415563
73.30387144153795
72.82843180017383
72.36355882419022
71.9103333157592
71.47019790315679
71.04508516457354
70.52979764590313
70.01845321833386
69.51157861391998
69.00973212270117
68.51350857030711
68.02354036601655
67.54048994764112
67.0650255142927
49.64078089401446
49.64078089401446
49.64078089401446
49.64078089401446
49.64078089401446
49.64078089401446
49.64078089401446
49.64078089401446
49.64078089401446
49.64078089401446
47.145405235414295
47.087997902231045
47.0349614831882
46.98613214985652
46.94137537914168
46.90058418362101
46.86367680542248
46.830594961471995
46.8013026217844
77.76792269967744
77.22496102864164
76.69098098648918
76.16602591462325
75.65016266394704
75.1434802490861
74.6460868926316
74.15810448219842
73.67965897291508
73.21086461877134
72.7517991763664
72.30246608323559
71.86273629083422
71.43225431129528
70.90478924488617
70.37944806879581
69.85605442450009
69.33440959792222
68.81428640986864
68.29542363234872
67.77752210366405
67.26024469442592
49.64078089401446
49.64078089401446
49.64078089401446
49.64078089401446
49.64078089401446
49.64078089401446
49.64078089401446
49.64078089401446
49.64078089401446
49.64078089401446
47.34076361909883
47.29640872075577
47.25408719086729
47.213888142461045
47.17588253921377
47.1401251355047
47.10665623934816
47.07550304003473
47.04668053152836
78.04106249013981
77.49832503183572
76.96455587369256
76.43976355256542
75.923956406706
75.41714123482107
74.91932160880702
74.4304960669909
73.95065662199139
73.47978835266636
73.01787134706926
72.56488708255355
72.12083308541176
71.68575342294568
71.15277566431921
70.6221878662884
70.0940334033852
69.56836463308895
69.04524603723561
68.52475749841327
68.00699746286509
67.49208547026346
49.64078089401446
49.64078089401446
49.64078089401446
49.64078089401446
49.64078089401446
49.64078089401446
49.64078089401446
49.64078089401446
49.64078089401446
49.64078089401446
47.41307426282387
47.368382157538626
47.326018902100344
47.285953741453774
47.248162517974535
47.21262655487289
47.1793317274766
47.14826777205179
47.119427809003554
78.23931561952661
77.6966292314965
77.1626849287346
76.6374870683936
76.12103820804242
75.61333926243125
75.11438975344574
74.62418816908114
74.14273240471117
73.67002016600044
73.20604903857391
72.75081559796104
72.3043122143097
71.86651868804643
71.32991508083845
70.7955996330558
70.26355875946331
69.733775671924
69.20622912513183
68.68089201863995
68.15772989003099
67.63669940585503
49.64078089401446
49.64078089401446
49.64078089401446
49.64078089401446
49.64078089401446
49.64078089401446
49.64078089401446
49.64078089401446
49.64078089401446
49.64078089401446
47.4347837246297
47.391054241070904
47.34943927789351
47.30994749509282
47.27258493673484
47.23735552302803
47.204261442477524
47.17330343982679
47.14448101271397
78.37223031242104
77.82956916698156
77.29548155764084
76.76997211671925
76.25304384553243
75.74469809014806
75.2449344902993
74.75375088448568
74.27114315831078
73.79710504078561
73.33162789733457
72.87470066989589
72.4263103589105
71.98644399263448
71.4471577605359
70.9101531549092
70.37543085512338
69.84299249269303
69.31284109749308
68.78498162047593
68.25942153641985
67.73617151246565
49.64078089401446
49.64078089401446
49.64078089401446
49.64078089401446
49.64078089401446
49.64078089401446
49.64078089401446
49.64078089401446
49.64078089401446
49.64078089401446
47.442206833115556
47.39853661237072
47.356999509264625
47.317590685709405
47.280306082989625
47.24514222697195
47.21209607746829
47.18116491921122
47.152346288252964
78.4485159769222
77.90586817935724
77.37169481093133
76.84600041624014
76.32878791345071
75.82005859264996
75.31981211966492
74.82804655220275
74.34475837679491
73.8699425741187
73.4035927123949
72.94570104203595
72.4962584875822
72.05525423868113
71.51449669409048
70.9760080593848
70.4397860141571
69.90582787451473
69.37413043499778
68.84468977452855
68.31750101992206
67.79255806452542
49.64078089401446
49.64078089401446
49.64078089401446
49.64078089401446
49.64078089401446
49.64078089401446
49.64078089401446
49.64078089401446
49.64078089401446
49.64078089401446
47.444469110620346
47.40087735190258
47.35940024279467
47.32003686613924
47.28278597407404
47.24764606442553
47.214615438190926
47.18369224044071
47.154874487565365
78.4733734659894
77.93072984382961
77.3965280322756
76.87077261870866
76.35346661761481
75.84461147676436
75.34420708425314
74.8522517730758
74.3687423181348
73.89367391928523
73.42704016543018
72.96883298541836
72.5190426303666
72.07765784058896
71.53640633922177
70.9974206037429
70.46069925149173
69.92624102605167
69.394044888047
68.86411012996301
68.33643652073194
67.81102448438398
49.64078089401446
49.64078089401446
49.64078089401446
49.64078089401446
49.64078089401446
49.64078089401446
49.64078089401446
49.64078089401446
49.64078089401446
49.64078089401446
47.44499858863559
47.40141103600378
47.359940406356976
47.32058425129672
47.28334025395356
47.24820618204523
47.215179853165964
47.18425911039138
47.15544180620363
78.4485159769226
77.90586817935765
77.3716948109317
76.8460004162405
76.328787913451
75.82005859265018
75.31981211966517
74.82804655220303
74.34475837679523
73.86994257411902
73.40359271239522
72.9457010420363
72.49625848758257
72.05525423868148
71.51449669409088
70.97600805938517
70.43978601415743
69.90582787451503
69.37413043499807
68.84468977452882
68.31750101992233
67.79255806452572
49.64078089401446
49.64078089401446
49.64078089401446
49.64078089401446
49.64078089401446
49.64078089401446
49.64078089401446
49.64078089401446
49.64078089401446
49.64078089401446
47.44446911062075
47.400877351903
47.35940024279511
47.320036866139695
47.2827859740745
47.24764606442601
47.21461543819141
47.18369224044119
47.15487448756584
78.37223031242169
77.82956916698222
77.29548155764152
76.76997211671988
76.25304384553307
75.74469809014872
75.24493449029994
74.75375088448631
74.27114315831138
73.79710504078619
73.33162789733517
72.8747006698965
72.42631035891111
71.98644399263512
71.44715776053648
70.91015315490975
70.37543085512394
69.84299249269357
69.31284109749363
68.7849816204765
68.25942153642042
67.73617151246619
49.64078089401446
49.64078089401446
49.64078089401446
49.64078089401446
49.64078089401446
49.64078089401446
49.64078089401446
49.64078089401446
49.64078089401446
49.64078089401446
47.442206833116586
47.398536612371764
47.35699950926569
47.31759068571049
47.28030608299072
47.24514222697304
47.21209607746938
47.18116491921233
47.15234628825407
78.23931561952706
77.69662923149694
77.16268492873502
76.63748706839398
76.1210382080428
75.61333926243161
75.11438975344606
74.62418816908144
74.14273240471145
73.67002016600074
73.20604903857424
72.7508155979614
72.30431221431013
71.86651868804685
71.3299150808389
70.79559963305626
70.26355875946373
69.7337756719244
69.20622912513215
68.68089201864022
68.15772989003123
67.63669940585525
49.64078089401446
49.64078089401446
49.64078089401446
49.64078089401446
49.64078089401446
49.64078089401446
49.64078089401446
49.64078089401446
49.64078089401446
49.64078089401446
47.434783724632446
47.391054241073725
47.34943927789638
47.30994749509569
47.272584936737694
47.23735552303085
47.20426144248028
47.17330343982947
47.144481012716625
78.04106249014013
77.49832503183606
76.96455587369294
76.43976355256585
75.92395640670642
75.4171412348215
74.91932160880746
74.43049606699134
73.95065662199185
73.47978835266683
73.01787134706971
72.56488708255398
72.12083308541213
71.68575342294602
71.15277566431956
70.6221878662887
70.09403340338552
69.56836463308932
69.04524603723607
68.52475749841375
68.00699746286556
67.49208547026392
49.64078089401446
49.64078089401446
49.64078089401446
49.64078089401446
49.64078089401446
49.64078089401446
49.64078089401446
49.64078089401446
49.64078089401446
49.64078089401446
47.41307426282603
47.368382157540836
47.32601890210261
47.2859537414561
47.2481625179769
47.21262655487528
47.179331727479024
47.14826777205426
47.11942780900604
77.76792269967723
77.22496102864142
76.69098098648892
76.16602591462295
75.65016266394672
75.14348024908581
74.64608689263133
74.15810448219817
73.67965897291484
73.21086461877113
72.75179917636626
72.30246608323552
71.86273629083418
71.43225431129525
70.90478924488615
70.3794480687958
69.85605442450006
69.33440959792222
68.8142864098686
68.29542363234864
67.77752210366396
67.26024469442578
49.64078089401446
49.64078089401446
49.64078089401446
49.64078089401446
49.64078089401446
49.64078089401446
49.64078089401446
49.64078089401446
49.64078089401446
49.64078089401446
47.3407636191005
47.29640872075747
47.254087190868994
47.21388814246275
47.175882539215486
47.14012513550642
47.10665623934985
47.0755030400364
47.04668053153003
77.42549476616017
76.88171647722703
76.34585570097481
75.81797215160111
75.29816628956827
74.78658891795885
74.28345683459852
73.78907569415517
73.30387144153751
72.82843180017342
72.3635588241899
71.91033331575892
71.47019790315652
71.0450851645733
70.52979764590293
70.01845321833366
69.51157861391978
69.00973212270097
68.51350857030691
68.02354036601632
67.54048994764088
67.06502551429243
49.64078089401446
49.64078089401446
49.64078089401446
49.64078089401446
49.64078089401446
49.64078089401446
49.64078089401446
49.64078089401446
49.64078089401446
49.64078089401446
47.14540523541544
47.08799790223222
47.034961483189406
46.98613214985776
46.941375379142926
46.90058418362226
46.863676805423744
46.83059496147328
46.80130262178568
77.06090231326938
76.51593827818603
75.97706584515795
75.44418056285691
74.91710930622985
74.39561165432262
73.87937707434791
73.36801890918416
72.86106830245261
72.357973948709
71.85811861814703
71.36086709746314
70.86564090888426
70.37195105137863
69.760853989537
69.15094988782569
68.54213588510397
67.93430067575008
67.32733376498533
66.72115147468732
66.11575685150746
65.51136248628303
49.64078089401446
49.64078089401446
49.64078089401446
49.64078089401446
49.64078089401446
49.64078089401446
49.64078089401446
49.64078089401446
49.64078089401446
49.64078089401446
46.417150913912565
46.38053142361934
46.345016482030594
46.31070139046189
46.27766499465228
46.24596804126662
46.215655289886655
46.18675716798902
46.15929090618567
77.0427913623541
76.49779322605079
75.95884267691035
75.4258206872654
74.89853445547872
74.37671957346527
73.8600346656562
73.34805056699186
72.84023678108225
72.33594909054172
71.83442793569652
71.33483727134023
70.83638959846259
70.33848579246289
69.72146947220945
69.10549359543819
68.49040702896397
67.8759967537417
67.26195796458099
66.64784339179701
66.03293204789358
65.41610656735136
64.78990203492168
52.431669428176654
49.11789091308072
47.92612210347364
47.573801216859245
47.449354609265676
47.393822753120844
47.315421760222144
47.125730078316415
46.41578829728239
46.37889831845031
46.34319925228879
46.308413353484106
46.27471655352054
46.24219074613772
46.210897545684375
46.18088242554874
46.152176578171634
46.12479783615029
77.02483353719283
76.47980713147055
75.94079493925231
75.40766211818637
74.88019587662833
74.35810858894061
73.84102950760276
73.32848880507635
72.81989612975178
72.31451516300478
71.81144065362706
71.30961912266079
70.8080257800803
70.30596472820615
69.6831355505763
69.06123117036721
68.44007681966937
67.8193835103142
67.19869146149459
66.57727677784986
65.95396190100637
65.32631305857643
64.69073600768937
52.6046224543064
49.08786152243944
47.90014988254082
47.53260743028176
47.40725624573034
47.3496228667664
47.27142132921759
47.06957353816678
46.37805092830076
46.342056976422086
46.306933844203414
46.27276924265301
46.23960946650181
46.20753176247241
46.17659530850013
46.14684488495486
46.11831158797112
46.091013362629596
77.00703170617696
76.46198382803912
75.92292869011398
75.38971353185802
74.86210518912961
74.3397940254503
73.82238204029402
73.30936156179024
72.80008576972752
72.29372981504025
71.78924342908516
71.28533554149922
70.78068760161351
70.27450611136068
69.64595699287
69.01828335585411
68.39133406393941
67.76479328826584
67.13811961639628
66.5104700337369
65.88054821105366
65.2465163144422
64.60611339384015
52.74413407850957
49.06095598724964
47.8729547576733
47.493527406164205
47.36696994915655
47.30770894330694
47.22943296224319
47.017563529926186
46.3416243688333
46.30632616545621
46.271811018319646
46.23816706190888
46.2054682340632
46.1737777573706
46.143151526895174
46.11363284062306
46.08525219680717
46.05802734700302
76.98938689240698
76.44432558489684