# vtk DataFile Version 2.0
Niestacjonarne zagadnienie cieplne - ogrzewanie wody w garnku stalowym
ASCII
DATASET UNSTRUCTURED_GRID
POINTS 1353 float
0.0 0.0 0.0
0.0 0.0015384615384615385 0.0
0.0 0.003076923076923077 0.0
0.0 0.004615384615384615 0.0
0.0 0.006153846153846154 0.0
0.0 0.007692307692307693 0.0
0.0 0.00923076923076923 0.0
0.0 0.010769230769230769 0.0
0.0 0.012307692307692308 0.0
0.0 0.013846153846153847 0.0
0.0 0.015384615384615385 0.0
0.0 0.016923076923076923 0.0
0.0 0.01846153846153846 0.0
0.0 0.02 0.0
0.0 0.020555555555555556 0.0
0.0 0.021111111111111112 0.0
0.0 0.021666666666666667 0.0
0.0 0.022222222222222223 0.0
0.0 0.02277777777777778 0.0
0.0 0.023333333333333334 0.0
0.0 0.02388888888888889 0.0
0.0 0.024444444444444446 0.0
0.0 0.025 0.0
0.0 0.036111111111111115 0.0
0.0 0.04722222222222222 0.0
0.0 0.058333333333333334 0.0
0.0 0.06944444444444445 0.0
0.0 0.08055555555555556 0.0
0.0 0.09166666666666667 0.0
0.0 0.10277777777777777 0.0
0.0 0.1138888888888889 0.0
0.0 0.125 0.0
0.0 0.12555555555555556 0.0
0.0 0.12611111111111112 0.0
0.0 0.12666666666666668 0.0
0.0 0.1272222222222222 0.0
0.0 0.12777777777777777 0.0
0.0 0.12833333333333333 0.0
0.0 0.1288888888888889 0.0
0.0 0.12944444444444445 0.0
0.0 0.13 0.0
5.555555555555556E-4 0.0 0.0
5.555555555555556E-4 0.0015384615384615385 0.0
5.555555555555556E-4 0.003076923076923077 0.0
5.555555555555556E-4 0.004615384615384615 0.0
5.555555555555556E-4 0.006153846153846154 0.0
5.555555555555556E-4 0.007692307692307693 0.0
5.555555555555556E-4 0.00923076923076923 0.0
5.555555555555556E-4 0.010769230769230769 0.0
5.555555555555556E-4 0.012307692307692308 0.0
5.555555555555556E-4 0.013846153846153847 0.0
5.555555555555556E-4 0.015384615384615385 0.0
5.555555555555556E-4 0.016923076923076923 0.0
5.555555555555556E-4 0.01846153846153846 0.0
5.555555555555556E-4 0.02 0.0
5.555555555555556E-4 0.020555555555555556 0.0
5.555555555555556E-4 0.021111111111111112 0.0
5.555555555555556E-4 0.021666666666666667 0.0
5.555555555555556E-4 0.022222222222222223 0.0
5.555555555555556E-4 0.02277777777777778 0.0
5.555555555555556E-4 0.023333333333333334 0.0
5.555555555555556E-4 0.02388888888888889 0.0
5.555555555555556E-4 0.024444444444444446 0.0
5.555555555555556E-4 0.025 0.0
5.555555555555556E-4 0.036111111111111115 0.0
5.555555555555556E-4 0.04722222222222222 0.0
5.555555555555556E-4 0.058333333333333334 0.0
5.555555555555556E-4 0.06944444444444445 0.0
5.555555555555556E-4 0.08055555555555556 0.0
5.555555555555556E-4 0.09166666666666667 0.0
5.555555555555556E-4 0.10277777777777777 0.0
5.555555555555556E-4 0.1138888888888889 0.0
5.555555555555556E-4 0.125 0.0
5.555555555555556E-4 0.12555555555555556 0.0
5.555555555555556E-4 0.12611111111111112 0.0
5.555555555555556E-4 0.12666666666666668 0.0
5.555555555555556E-4 0.1272222222222222 0.0
5.555555555555556E-4 0.12777777777777777 0.0
5.555555555555556E-4 0.12833333333333333 0.0
5.555555555555556E-4 0.1288888888888889 0.0
5.555555555555556E-4 0.12944444444444445 0.0
5.555555555555556E-4 0.13 0.0
0.0011111111111111111 0.0 0.0
0.0011111111111111111 0.0015384615384615385 0.0
0.0011111111111111111 0.003076923076923077 0.0
0.0011111111111111111 0.004615384615384615 0.0
0.0011111111111111111 0.006153846153846154 0.0
0.0011111111111111111 0.007692307692307693 0.0
0.0011111111111111111 0.00923076923076923 0.0
0.0011111111111111111 0.010769230769230769 0.0
0.0011111111111111111 0.012307692307692308 0.0
0.0011111111111111111 0.013846153846153847 0.0
0.0011111111111111111 0.015384615384615385 0.0
0.0011111111111111111 0.016923076923076923 0.0
0.0011111111111111111 0.01846153846153846 0.0
0.0011111111111111111 0.02 0.0
0.0011111111111111111 0.020555555555555556 0.0
0.0011111111111111111 0.021111111111111112 0.0
0.0011111111111111111 0.021666666666666667 0.0
0.0011111111111111111 0.022222222222222223 0.0
0.0011111111111111111 0.02277777777777778 0.0
0.0011111111111111111 0.023333333333333334 0.0
0.0011111111111111111 0.02388888888888889 0.0
0.0011111111111111111 0.024444444444444446 0.0
0.0011111111111111111 0.025 0.0
0.0011111111111111111 0.036111111111111115 0.0
0.0011111111111111111 0.04722222222222222 0.0
0.0011111111111111111 0.058333333333333334 0.0
0.0011111111111111111 0.06944444444444445 0.0
0.0011111111111111111 0.08055555555555556 0.0
0.0011111111111111111 0.09166666666666667 0.0
0.0011111111111111111 0.10277777777777777 0.0
0.0011111111111111111 0.1138888888888889 0.0
0.0011111111111111111 0.125 0.0
0.0011111111111111111 0.12555555555555556 0.0
0.0011111111111111111 0.12611111111111112 0.0
0.0011111111111111111 0.12666666666666668 0.0
0.0011111111111111111 0.1272222222222222 0.0
0.0011111111111111111 0.12777777777777777 0.0
0.0011111111111111111 0.12833333333333333 0.0
0.0011111111111111111 0.1288888888888889 0.0
0.0011111111111111111 0.12944444444444445 0.0
0.0011111111111111111 0.13 0.0
0.0016666666666666666 0.0 0.0
0.0016666666666666666 0.0015384615384615385 0.0
0.0016666666666666666 0.003076923076923077 0.0
0.0016666666666666666 0.004615384615384615 0.0
0.0016666666666666666 0.006153846153846154 0.0
0.0016666666666666666 0.007692307692307693 0.0
0.0016666666666666666 0.00923076923076923 0.0
0.0016666666666666666 0.010769230769230769 0.0
0.0016666666666666666 0.012307692307692308 0.0
0.0016666666666666666 0.013846153846153847 0.0
0.0016666666666666666 0.015384615384615385 0.0
0.0016666666666666666 0.016923076923076923 0.0
0.0016666666666666666 0.01846153846153846 0.0
0.0016666666666666666 0.02 0.0
0.0016666666666666666 0.020555555555555556 0.0
0.0016666666666666666 0.021111111111111112 0.0
0.0016666666666666666 0.021666666666666667 0.0
0.0016666666666666666 0.022222222222222223 0.0
0.0016666666666666666 0.02277777777777778 0.0
0.0016666666666666666 0.023333333333333334 0.0
0.0016666666666666666 0.02388888888888889 0.0
0.0016666666666666666 0.024444444444444446 0.0
0.0016666666666666666 0.025 0.0
0.0016666666666666666 0.036111111111111115 0.0
0.0016666666666666666 0.04722222222222222 0.0
0.0016666666666666666 0.058333333333333334 0.0
0.0016666666666666666 0.06944444444444445 0.0
0.0016666666666666666 0.08055555555555556 0.0
0.0016666666666666666 0.09166666666666667 0.0
0.0016666666666666666 0.10277777777777777 0.0
0.0016666666666666666 0.1138888888888889 0.0
0.0016666666666666666 0.125 0.0
0.0016666666666666666 0.12555555555555556 0.0
0.0016666666666666666 0.12611111111111112 0.0
0.0016666666666666666 0.12666666666666668 0.0
0.0016666666666666666 0.1272222222222222 0.0
0.0016666666666666666 0.12777777777777777 0.0
0.0016666666666666666 0.12833333333333333 0.0
0.0016666666666666666 0.1288888888888889 0.0
0.0016666666666666666 0.12944444444444445 0.0
0.0016666666666666666 0.13 0.0
0.0022222222222222222 0.0 0.0
0.0022222222222222222 0.0015384615384615385 0.0
0.0022222222222222222 0.003076923076923077 0.0
0.0022222222222222222 0.004615384615384615 0.0
0.0022222222222222222 0.006153846153846154 0.0
0.0022222222222222222 0.007692307692307693 0.0
0.0022222222222222222 0.00923076923076923 0.0
0.0022222222222222222 0.010769230769230769 0.0
0.0022222222222222222 0.012307692307692308 0.0
0.0022222222222222222 0.013846153846153847 0.0
0.0022222222222222222 0.015384615384615385 0.0
0.0022222222222222222 0.016923076923076923 0.0
0.0022222222222222222 0.01846153846153846 0.0
0.0022222222222222222 0.02 0.0
0.0022222222222222222 0.020555555555555556 0.0
0.0022222222222222222 0.021111111111111112 0.0
0.0022222222222222222 0.021666666666666667 0.0
0.0022222222222222222 0.022222222222222223 0.0
0.0022222222222222222 0.02277777777777778 0.0
0.0022222222222222222 0.023333333333333334 0.0
0.0022222222222222222 0.02388888888888889 0.0
0.0022222222222222222 0.024444444444444446 0.0
0.0022222222222222222 0.025 0.0
0.0022222222222222222 0.036111111111111115 0.0
0.0022222222222222222 0.04722222222222222 0.0
0.0022222222222222222 0.058333333333333334 0.0
0.0022222222222222222 0.06944444444444445 0.0
0.0022222222222222222 0.08055555555555556 0.0
0.0022222222222222222 0.09166666666666667 0.0
0.0022222222222222222 0.10277777777777777 0.0
0.0022222222222222222 0.1138888888888889 0.0
0.0022222222222222222 0.125 0.0
0.0022222222222222222 0.12555555555555556 0.0
0.0022222222222222222 0.12611111111111112 0.0
0.0022222222222222222 0.12666666666666668 0.0
0.0022222222222222222 0.1272222222222222 0.0
0.0022222222222222222 0.12777777777777777 0.0
0.0022222222222222222 0.12833333333333333 0.0
0.0022222222222222222 0.1288888888888889 0.0
0.0022222222222222222 0.12944444444444445 0.0
0.0022222222222222222 0.13 0.0
0.002777777777777778 0.0 0.0
0.002777777777777778 0.0015384615384615385 0.0
0.002777777777777778 0.003076923076923077 0.0
0.002777777777777778 0.004615384615384615 0.0
0.002777777777777778 0.006153846153846154 0.0
0.002777777777777778 0.007692307692307693 0.0
0.002777777777777778 0.00923076923076923 0.0
0.002777777777777778 0.010769230769230769 0.0
0.002777777777777778 0.012307692307692308 0.0
0.002777777777777778 0.013846153846153847 0.0
0.002777777777777778 0.015384615384615385 0.0
0.002777777777777778 0.016923076923076923 0.0
0.002777777777777778 0.01846153846153846 0.0
0.002777777777777778 0.02 0.0
0.002777777777777778 0.020555555555555556 0.0
0.002777777777777778 0.021111111111111112 0.0
0.002777777777777778 0.021666666666666667 0.0
0.002777777777777778 0.022222222222222223 0.0
0.002777777777777778 0.02277777777777778 0.0
0.002777777777777778 0.023333333333333334 0.0
0.002777777777777778 0.02388888888888889 0.0
0.002777777777777778 0.024444444444444446 0.0
0.002777777777777778 0.025 0.0
0.002777777777777778 0.036111111111111115 0.0
0.002777777777777778 0.04722222222222222 0.0
0.002777777777777778 0.058333333333333334 0.0
0.002777777777777778 0.06944444444444445 0.0
0.002777777777777778 0.08055555555555556 0.0
0.002777777777777778 0.09166666666666667 0.0
0.002777777777777778 0.10277777777777777 0.0
0.002777777777777778 0.1138888888888889 0.0
0.002777777777777778 0.125 0.0
0.002777777777777778 0.12555555555555556 0.0
0.002777777777777778 0.12611111111111112 0.0
[...]
POINT_DATA 1353
SCALARS Temperatura float 1
LOOKUP_TABLE default
92.64861124016869
92.1163754983272
91.589544189759
91.067742423512
90.55062764795488
90.03778134695393
89.52866939308421
89.02259244750199
88.51861979880118
88.01546495673826
87.51135156788216
87.0033019398108
86.48770507213904
85.9448708755613
85.24159947381021
84.57418625435928
83.91794964346133
83.26853322486984
82.62320392359263
81.98018606274836
81.3381947488852
80.6963075056584
80.05393354143773
68.83064566985072
64.75654261988528
63.558233994501556
63.153214096772466
63.01956643033335
62.94787959710371
62.84160372766635
62.51387941821668
61.62971250688727
61.581526968993806
61.53386083996557
61.486789853654145
61.44037661553395
61.39467217421147
61.34971723079023
61.3055429003367
61.26217108361859
61.219614584227706
92.67026524174435
92.13791833787836
91.61094888362356
91.08901435359529
90.57177265300177
90.05880829715852
89.54958971822866
89.04342238026186
88.53937888892202
88.03619851420746
87.53206068725783
87.0243514072576
86.5080996533399
85.97308585875962
85.30078815354744
84.63597087683473
83.98112574353559
83.33224049300794
82.68709417741871
82.04404493381595
81.40185610766576
80.75961167392417
80.11670937565532
68.86845850824587
64.80136760126476
63.6027648054402
63.19802970430874
63.064435282229454
62.99278564035413
62.88648961227609
62.559353091119746
61.672984711115994
61.62470399073568
61.57695065684703
61.52979961014923
61.48331268826676
61.437540374480335
61.39252304421586
61.348291684722696
61.30486818675341
61.26226538216505
92.69201602759925
92.15961660117584
91.63255079218287
91.11052712421143
90.59321239687065
90.08019865136593
89.57096311479548
89.06482337068525
88.56087325773507
88.05788074121243
87.55411014103613
87.04704276551647
86.53218835169596
86.00497831281339
85.34627408307723
84.69100166868208
84.04050193215524
83.39428031376107
82.75089250749475
82.10902893598157
81.46755972819575
80.82557196075805
80.18241724745508
68.88186129367796
64.84439908079673
63.64725870658924
63.24423768479161
63.11106612384582
63.0396795041645
62.93353131925387
62.60884854451438
61.71766158919626
61.66919466044428
61.621278127469836
61.57398399527656
61.527371527947466
61.48148938129982
61.4363769291472
61.392064806072504
61.348574915402004
61.30592020443774
92.71389290059714
92.18147126088157
91.65434908116184
91.13227887655775
90.61494406266249
90.10194858024732
89.59278397674699
89.08678831851566
88.5830878343339
88.08050457447027
87.57741560653821
87.07147330141578
86.55921226167209
86.03852869227121
85.38937965283684
84.74212538925654
84.09751195745345
83.45542234919769
82.81511596485444
82.17557510406469
81.53575502477729
80.89469619058215
80.25163264245438
68.87034095780452
64.88589162554067
63.69164712941967
63.29186431571052
63.15945348775487
63.0885704587256
62.98271048851403
62.66240666091529
61.76371906793041
61.714977710846156
61.666825145429705
61.61932762279601
61.57253958900783
61.526506571823205
61.481266504638064
61.436849776100125
61.39327860689389
61.350566320219805
92.73591098740295
92.20348582783068
91.67634199994511
91.15426643342427
90.63696295591014
90.12405160263019
89.61504334397844
89.1093040804571
88.60600338307094
88.10403769372225
87.60191612156949
87.09757151578864
86.58845408846322
86.0734606036739
85.43219007056318
84.79214768810046
84.15366447465729
83.51661958990523
82.88045937495606
82.24431667099061
81.60713975685313
80.9678191496895
80.32534161121892
68.83304137618529
64.92628094150571
63.73581103061195
63.340954381780335
63.209586236618904
63.13947318178322
63.033994264473705
62.720093940531214
61.811114563084715
61.76201645694376
61.71356131971019
61.665805175127886
61.618794647257545
61.57257094571429
61.52717077930918
61.482625111144145
61.43895730909899
61.396181608285055
92.75807824219743
92.22566281655656
91.69852717108547
91.1764852216061
90.65926253433065
90.14649875098999
89.63772880402533
89.13235280906694
88.62959349386489
88.12843597723501
87.62754335162592
87.12517279289405
86.61945826191594
86.1096848377119
85.47554200634168
84.84232413151844
84.21011589982011
83.57872061741028
82.94761780110441
82.31595867295626
81.68258363507027
81.04608589532872
80.40499115613733
68.76873495953616
64.96619980610883
63.77957343821179
63.39157419444539
63.26144627203956
63.19240866117349
63.087334087892295
62.78200421341242
61.859784488048355
61.810258551133735
61.761445522371496
61.71338376054716
61.666107835580476
61.6196543425762
61.574060545214245
61.52936022703037
61.485579422629904
61.4427341240919
92.78039825097362
92.24800287698207
91.7209012790285
91.19892930350892
90.68183445746305
90.1692786911359
89.66082475197122
89.15591235025633
88.6538251714888
88.1536474862864
87.65421231808092
87.15409596365421
86.65192168006261
86.14712922607731
85.51979523962515
84.89327972567337
84.26753349405948
83.64231314983674
83.01711703809008
82.39111348743756
81.76299822055013
81.13091432713175
80.49257698272302
68.6757775492795
65.0065022082038
63.82268830799111
63.443816103483805
63.315006602217295
63.24740553554722
63.14266391067393
62.848261238752755
61.90964017322111
61.85963609862115
61.810429905960326
61.76202772938352
61.71444744694858
61.667722779805494
61.621898503625665
61.57701496516572
61.5331029692858
61.490181298161204
92.80287152042636
92.27050469697267
91.7434598158824
91.22159138548618
90.70466866137421
90.19237787541394
89.68431269242431
89.17995666762181
88.67866009973928
88.17961346571286
87.68182657862211
87.18416887371441
86.68562176034823
86.1857068178069
85.56508213698824
84.94529146385834
84.3262323164379
83.70767000229178
83.08917789767999
82.47004511494337
81.84909058976409
81.22387580220513
80.59079483689429
68.5520386169274
65.04829833227583
63.86482474755145
63.49780485769082
63.37022861897606
63.304501966449145
63.19989770759448
62.91902248797245
61.960561305818196
61.91006779201273
61.86046650479493
61.81171348749799
61.763782290030214
61.71673694439702
61.670638545179216
61.62553845688765
61.58147433105392
61.53846865146075
92.82549616896353
92.29316511860648
91.76619695861972
91.24446282373594
90.72775345095302
90.21578072494881
89.70817155722126
89.20445640352382
88.7040557466729
88.20626977256161
87.71028433174877
87.21523307579903
86.7203773042193
86.22531184969463
85.61140278899862
84.99842131317227
84.38626682097198
83.77476547682714
83.16363754323893
82.55244591654981
81.94046563297522
81.32655251111284
80.7033005255726
68.39479312612806
65.09300477332471
63.905545096230135
63.55370636254413
63.42705837981351
63.3637481034617
63.258926377425645
62.994483522154866
62.01238939534833
61.961390031695764
61.91159963430185
61.86243289418099
61.814081809435365
61.76665025864
61.720223596293415
61.67486710650478
61.630626395674625
61.587528005793054
92.84826835884806
92.315979305699
91.78910554377337
91.26753364793794
90.75107560625332
90.23946983000391
89.7323780470302
89.22937948612699
88.72996639488483
88.2335486987028
87.73948246189445
87.24714176340142
86.75602781933145
86.26582224446925
85.65867592600449
85.05259474539264
84.44750960312649
83.84333603242862
83.23998106593272
82.63736738981926
82.0354917366526
81.434546732666
66.09886079039347
66.09886079039347
66.09886079039347
66.09886079039347
66.09886079039347
66.09886079039347
66.09886079039347
66.09886079039347
66.09886079039347
66.09886079039347
62.01422064850738
61.96388971852642
61.91418685018372
61.86530856687583
61.81740364891938
61.77058180022334
61.72492172719396
61.68047622793696
61.637275328370976
93.29969651999238
92.76877276963445
92.24531146455823
91.72937929175448
91.221089363947
90.72061204059365
90.22819239593659
89.74417554705173
89.26904117453986
88.8034484354825
88.34829144289131
87.90476468835634
87.4744450628816
87.05942259397338
86.5568778392123
86.05825863359219
85.56413123682809
85.0750970799275
84.59179881667745
84.11492240893493
83.6451906499691
83.18333998477
66.09886079039347
66.09886079039347
66.09886079039347
66.09886079039347
66.09886079039347
66.09886079039347
66.09886079039347
66.09886079039347
66.09886079039347
66.09886079039347
63.02040535476277
62.94326653187789
62.871129287924795
62.80376081539152
62.74097427651841
62.682623236848094
62.62859699837732
62.57881737543879
62.53323656422297
93.71691805924581
93.18691718923735
92.66553114533791
92.15280697734715
91.64881777393111
91.1536610477801
90.66745530006357
90.19033368185738
89.72243315810965
89.2638769436799
88.8147473334936
88.37504503324024
87.94462743226171
87.52310849638702
87.0064401779173
86.49171480760143
85.97874142126628
85.46730460078346
84.95715769733296
84.44801653462146
83.93955472986613
83.43140277783162
66.09886079039347
66.09886079039347
66.09886079039347
66.09886079039347
66.09886079039347
66.09886079039347
66.09886079039347
66.09886079039347
66.09886079039347
66.09886079039347
63.2937419619569
63.23428394483752
63.176640713644844
63.12093651151344
63.067269367884485
63.015714612029015
62.96632768721576
62.91914617797482
62.8741911861436
94.04829063170003
93.51854474021924
92.99736449487989
92.48475799453786
91.98073297383722
91.48529533105052
90.99844728190084
90.52018539804584
90.05049901285362
89.58936982767445
89.13677405184714
88.6926892289756
88.25710979146899
87.83007961794145
87.30674141164026
86.78562474840166
86.26677561800807
85.7502497783827
85.23611619493222
84.72446065275328
84.21538931006634
83.70903168359432
66.09886079039347
66.09886079039347
66.09886079039347
66.09886079039347
66.09886079039347
66.09886079039347
66.09886079039347
66.09886079039347
66.09886079039347
66.09886079039347
63.394607044935114
63.33480614590628
63.27720754713248
63.221770179904
63.16846230026697
63.11725973461133
63.06814450826844
63.02110385064151
62.97612951862846
94.28887071204728
93.75918528484341
93.23778814601233
92.72468280496474
92.2198706646224
91.72335119340175
91.23512219780557
90.75518020997141
90.28352095784058
89.8201397859081
89.36503171493798
88.91819048912322
88.4796051903624
88.04925130941304
87.52148852853335
86.9958332533089
86.47227029296386
85.95078098595201
85.43134183412656
84.91392297366599
84.39848650995668
83.88498481656322
66.09886079039347
66.09886079039347
66.09886079039347
66.09886079039347
66.09886079039347
66.09886079039347
66.09886079039347
66.09886079039347
66.09886079039347
66.09886079039347
63.42513381813807
63.36665211048336
63.31008028102915
63.25543105163651
63.20271351169321
63.1519338491743
63.103095910795076
63.05620160612587
63.01125118083079
94.45032643627522
93.92067150170176
93.39909976294223
92.88561503830032
92.38021924020818
91.88291234845143
91.39369235432017
90.91255515794415
90.439494405739
89.97450127382791
89.5175642488958
89.06866906275955
88.62779919742789
88.19493798274958
87.66392933389405
87.1350178656409
86.60820375681853
86.08348821792158
85.5608739755376
85.04036584171607
84.5219713750549
84.00570162247287
66.09886079039347
66.09886079039347
66.09886079039347
66.09886079039347
66.09886079039347
66.09886079039347
66.09886079039347
66.09886079039347
66.09886079039347
66.09886079039347
63.43557778306961
63.37718785412309
63.32073134544091
63.26620260600471
63.21359707304524
63.16291099105062
63.11414120040816
63.067284986427964
63.02233997819638
94.54306761655663
94.01342890894406
93.49175291894045
92.9780433802128
92.47230214023953
91.97452915908111
91.48472251435403
91.00287841969701
90.52899126567378
90.0630536910457
89.60505668429103
89.15498968800739
88.71284059689907
88.27859532810442
87.74579680764225
87.2150800485313
86.68644206424244
86.15987947824571
85.63538835289557
85.11296397878655
84.59260061670217
84.07429118819444
66.09886079039347
66.09886079039347
66.09886079039347
66.09886079039347
66.09886079039347
66.09886079039347
66.09886079039347
66.09886079039347
66.09886079039347
66.09886079039347
63.43877855524573
63.38049746433024
63.32412449261309
63.26965929566605
63.217101086643886
63.166448744454556
63.11770089345909
63.070855959589196
63.02591220749111
94.57330012271287
94.04366651206698
93.52195598447582
93.0081723246954
92.50231749478115
92.00439164120246
91.51439310308253
91.0323184180096
90.55816232001824
90.09191772296842
89.63357568389446
89.18312535179898
88.74055394852478
88.3058469462773
87.77244918423972
87.24112919620613
86.71188500727834
86.18471478086578
85.65961691690642
85.1365901763747
84.6156338387376
84.09674789770472
66.09886079039347
66.09886079039347
66.09886079039347
66.09886079039347
66.09886079039347
66.09886079039347
66.09886079039347
66.09886079039347
66.09886079039347
66.09886079039347
63.43952803913798
63.38125356613243
63.32489014222624
63.27043534992317
63.21788696374442
63.1672428843439
63.11850109063473
63.071659606442466
63.02671647864889
94.54306761655718
94.01342890894463
93.491752918941
92.97804338021334
92.47230214023999
91.9745291590815
91.4847225143544
91.00287841969742
90.52899126567421
90.06305369104615
89.60505668429148
89.15498968800786
88.71284059689954
88.27859532810487
87.7457968076427
87.21508004853173
86.68644206424285
86.15987947824608
85.63538835289592
85.11296397878691
84.59260061670253
84.07429118819483
66.09886079039347
66.09886079039347
66.09886079039347
66.09886079039347
66.09886079039347
66.09886079039347
66.09886079039347
66.09886079039347
66.09886079039347
66.09886079039347
63.438778555246316
63.38049746433085
63.324124492613706
63.26965929566668
63.217101086644526
63.166448744455224
63.11770089345978
63.07085595958988
63.0259122074918
94.45032643627609
93.92067150170264
93.39909976294311
92.88561503830115
92.38021924020902
91.88291234845225
91.39369235432096
90.91255515794492
90.43949440573972
89.97450127382864
89.51756424889652
89.06866906276029
88.62779919742864
88.19493798275039
87.66392933389481
87.13501786564167
86.60820375681928
86.08348821792232
85.56087397553833
85.0403658417168
84.52197137505564
84.00570162247357
66.09886079039347
66.09886079039347
66.09886079039347
66.09886079039347
66.09886079039347
66.09886079039347
66.09886079039347
66.09886079039347
66.09886079039347
66.09886079039347
63.43557778307103
63.37718785412452
63.32073134544237
63.26620260600621
63.21359707304674
63.16291099105212
63.11414120040967
63.0672849864295
63.02233997819791
94.28887071204794
93.75918528484401
93.23778814601289
92.72468280496525
92.21987066462289
91.72335119340224
91.23512219780602
90.75518020997183
90.28352095784099
89.8201397859085
89.36503171493844
88.91819048912367
88.47960519036292
88.04925130941353
87.52148852853391
86.99583325330946
86.4722702929644
85.95078098595249
85.43134183412694
84.91392297366627
84.39848650995692
83.88498481656343
66.09886079039347
66.09886079039347
66.09886079039347
66.09886079039347
66.09886079039347
66.09886079039347
66.09886079039347
66.09886079039347
66.09886079039347
66.09886079039347
63.425133818141795
63.36665211048719
63.31008028103305
63.25543105164041
63.202713511697105
63.15193384917814
63.10309591079883
63.05620160612952
63.01125118083441
94.04829063170047
93.5185447402197
92.99736449488037
92.4847579945384
91.98073297383776
91.48529533105105
90.99844728190136
90.52018539804637
90.05049901285416
89.58936982767499
89.13677405184767
88.69268922897608
88.25710979146943
87.83007961794188
87.3067414116407
86.78562474840204
86.26677561800847
85.75024977838314
85.23611619493276
84.72446065275386
84.21538931006694
83.70903168359489
66.09886079039347
66.09886079039347
66.09886079039347
66.09886079039347
66.09886079039347
66.09886079039347
66.09886079039347
66.09886079039347
66.09886079039347
66.09886079039347
63.39460704493806
63.33480614590928
63.27720754713553
63.22177017990713
63.16846230027016
63.117259734614564
63.068144508271715
63.02110385064484
62.976129518631815
93.71691805924554
93.18691718923706
92.6655311453376
92.1528069773468
91.64881777393077
91.15366104777982
90.66745530006328
90.19033368185708
89.72243315810933
89.26387694367962
88.81474733349339
88.37504503324008
87.94462743226158
87.52310849638693
87.0064401779172
86.49171480760137
85.97874142126622
85.46730460078342
84.95715769733287
84.44801653462137
83.93955472986603
83.43140277783147
66.09886079039347
66.09886079039347
66.09886079039347
66.09886079039347
66.09886079039347
66.09886079039347
66.09886079039347
66.09886079039347
66.09886079039347
66.09886079039347
63.2937419619592
63.23428394483986
63.176640713647195
63.12093651151578
63.067269367886816
63.01571461203135
62.96632768721806
62.919146177977076
62.87419118614587
93.29969651999168
92.76877276963377
92.24531146455755
91.7293792917538
91.22108936394632
90.72061204059302
90.22819239593599
89.74417554705113
89.26904117453931
88.80344843548197
88.34829144289087
87.90476468835595
87.47444506288123
87.05942259397305
86.55687783921205
86.0582586335919
85.56413123682782
85.07509707992722
84.59179881667718
84.11492240893466
83.6451906499688
83.18333998476969
66.09886079039347
66.09886079039347
66.09886079039347
66.09886079039347
66.09886079039347
66.09886079039347
66.09886079039347
66.09886079039347
66.09886079039347
66.09886079039347
63.0204053547643
62.94326653187945
62.8711292879264
62.80376081539317
62.74097427652007
62.68262323684977
62.62859699837901
62.57881737544051
62.53323656422466
92.84826835884705
92.31597930569801
91.78910554377251
91.26753364793723
90.7510756062528
90.23946983000344
89.73237804702983
89.22937948612662
88.72996639488443
88.23354869870242
87.73948246189401
87.24714176340095
86.75602781933105
86.26582224446891
85.65867592600425
85.05259474539258
84.44750960312656
83.84333603242884
83.23998106593301
82.63736738981963
82.03549173665301
81.43454673266645
66.09886079039347
66.09886079039347
66.09886079039347
66.09886079039347
66.09886079039347
66.09886079039347
66.09886079039347
66.09886079039347
66.09886079039347
66.09886079039347
62.01422064850908
61.96388971852817
61.91418685018549
61.86530856687763
61.817403648921236
61.7705818002252
61.7249217271958
61.680476227938726
61.63727532837276
92.82549616896249
92.29316511860542
91.76619695861886
91.24446282373523
90.72775345095248
90.21578072494837
89.70817155722085
89.2044564035235
88.70405574667254
88.20626977256117
87.71028433174835
87.21523307579854
86.72037730421891
86.22531184969435
85.61140278899842
84.99842131317219
84.38626682097207
83.77476547682731
83.16363754323925
82.55244591655023
81.94046563297573
81.3265525111133
80.7033005255731
68.39479312612967
65.09300477332458
63.90554509623005
63.55370636254524
63.42705837981398
63.36374810346219
63.258926377426356
62.99448352215397
62.01238939534992
61.96139003169743
61.9115996343036
61.86243289418275
61.81408180943718
61.766650258641775
61.72022359629523
61.67486710650656
61.63062639567639
61.5875280057948
92.8028715204253
92.27050469697164
91.7434598158816
91.22159138548545
90.70466866137365
90.19237787541351
89.68431269242389
89.17995666762148
88.67866009973886
88.17961346571246
87.68182657862174
87.1841688737139
86.68562176034789
86.1857068178066
85.56508213698811
84.94529146385833
84.32623231643801
83.707670002292
83.0891778976803
82.47004511494382
81.84909058976454
81.22387580220561
80.59079483689477
68.55203861692904
65.04829833227575
63.86482474755149
63.49780485769198
63.37022861897649
63.30450196644968
63.19989770759519
62.919022487971525
61.96056130581984
61.910067792014424
61.86046650479665
61.81171348749969
61.763782290031955
61.71673694439876
61.67063854518096
61.62553845688937
61.581474331055645
61.53846865146247
92.78039825097251
92.24800287698108
91.72090127902764
91.19892930350815
90.68183445746251
90.16927869113547
89.66082475197081
89.15591235025592
88.65382517148838
88.15364748628599
87.6542123180805
87.1540959636538
86.6519216800622
86.14712922607706
85.51979523962503
84.89327972567342
84.26753349405956
83.64231314983695
83.01711703809043
82.39111348743799
81.76299822055063
81.1309143271323
80.49257698272358
68.67577754928114
65.00650220820387
63.822688307991186
63.44381610348492
63.31500660221779
63.24740553554772
63.14266391067475
62.848261238751846
61.9096401732228
61.85963609862284
61.81042990596201
61.762027729385224
61.71444744695031
61.66772277980718
61.62189850362732
61.5770149651674
61.53310296928745
61.49018129816284
92.75807824219638
92.22566281655554