# vtk DataFile Version 2.0
Niestacjonarne zagadnienie cieplne - ogrzewanie wody w garnku stalowym
ASCII
DATASET UNSTRUCTURED_GRID
POINTS 1353 float
0.0 0.0 0.0
0.0 0.0015384615384615385 0.0
0.0 0.003076923076923077 0.0
0.0 0.004615384615384615 0.0
0.0 0.006153846153846154 0.0
0.0 0.007692307692307693 0.0
0.0 0.00923076923076923 0.0
0.0 0.010769230769230769 0.0
0.0 0.012307692307692308 0.0
0.0 0.013846153846153847 0.0
0.0 0.015384615384615385 0.0
0.0 0.016923076923076923 0.0
0.0 0.01846153846153846 0.0
0.0 0.02 0.0
0.0 0.020555555555555556 0.0
0.0 0.021111111111111112 0.0
0.0 0.021666666666666667 0.0
0.0 0.022222222222222223 0.0
0.0 0.02277777777777778 0.0
0.0 0.023333333333333334 0.0
0.0 0.02388888888888889 0.0
0.0 0.024444444444444446 0.0
0.0 0.025 0.0
0.0 0.036111111111111115 0.0
0.0 0.04722222222222222 0.0
0.0 0.058333333333333334 0.0
0.0 0.06944444444444445 0.0
0.0 0.08055555555555556 0.0
0.0 0.09166666666666667 0.0
0.0 0.10277777777777777 0.0
0.0 0.1138888888888889 0.0
0.0 0.125 0.0
0.0 0.12555555555555556 0.0
0.0 0.12611111111111112 0.0
0.0 0.12666666666666668 0.0
0.0 0.1272222222222222 0.0
0.0 0.12777777777777777 0.0
0.0 0.12833333333333333 0.0
0.0 0.1288888888888889 0.0
0.0 0.12944444444444445 0.0
0.0 0.13 0.0
5.555555555555556E-4 0.0 0.0
5.555555555555556E-4 0.0015384615384615385 0.0
5.555555555555556E-4 0.003076923076923077 0.0
5.555555555555556E-4 0.004615384615384615 0.0
5.555555555555556E-4 0.006153846153846154 0.0
5.555555555555556E-4 0.007692307692307693 0.0
5.555555555555556E-4 0.00923076923076923 0.0
5.555555555555556E-4 0.010769230769230769 0.0
5.555555555555556E-4 0.012307692307692308 0.0
5.555555555555556E-4 0.013846153846153847 0.0
5.555555555555556E-4 0.015384615384615385 0.0
5.555555555555556E-4 0.016923076923076923 0.0
5.555555555555556E-4 0.01846153846153846 0.0
5.555555555555556E-4 0.02 0.0
5.555555555555556E-4 0.020555555555555556 0.0
5.555555555555556E-4 0.021111111111111112 0.0
5.555555555555556E-4 0.021666666666666667 0.0
5.555555555555556E-4 0.022222222222222223 0.0
5.555555555555556E-4 0.02277777777777778 0.0
5.555555555555556E-4 0.023333333333333334 0.0
5.555555555555556E-4 0.02388888888888889 0.0
5.555555555555556E-4 0.024444444444444446 0.0
5.555555555555556E-4 0.025 0.0
5.555555555555556E-4 0.036111111111111115 0.0
5.555555555555556E-4 0.04722222222222222 0.0
5.555555555555556E-4 0.058333333333333334 0.0
5.555555555555556E-4 0.06944444444444445 0.0
5.555555555555556E-4 0.08055555555555556 0.0
5.555555555555556E-4 0.09166666666666667 0.0
5.555555555555556E-4 0.10277777777777777 0.0
5.555555555555556E-4 0.1138888888888889 0.0
5.555555555555556E-4 0.125 0.0
5.555555555555556E-4 0.12555555555555556 0.0
5.555555555555556E-4 0.12611111111111112 0.0
5.555555555555556E-4 0.12666666666666668 0.0
5.555555555555556E-4 0.1272222222222222 0.0
5.555555555555556E-4 0.12777777777777777 0.0
5.555555555555556E-4 0.12833333333333333 0.0
5.555555555555556E-4 0.1288888888888889 0.0
5.555555555555556E-4 0.12944444444444445 0.0
5.555555555555556E-4 0.13 0.0
0.0011111111111111111 0.0 0.0
0.0011111111111111111 0.0015384615384615385 0.0
0.0011111111111111111 0.003076923076923077 0.0
0.0011111111111111111 0.004615384615384615 0.0
0.0011111111111111111 0.006153846153846154 0.0
0.0011111111111111111 0.007692307692307693 0.0
0.0011111111111111111 0.00923076923076923 0.0
0.0011111111111111111 0.010769230769230769 0.0
0.0011111111111111111 0.012307692307692308 0.0
0.0011111111111111111 0.013846153846153847 0.0
0.0011111111111111111 0.015384615384615385 0.0
0.0011111111111111111 0.016923076923076923 0.0
0.0011111111111111111 0.01846153846153846 0.0
0.0011111111111111111 0.02 0.0
0.0011111111111111111 0.020555555555555556 0.0
0.0011111111111111111 0.021111111111111112 0.0
0.0011111111111111111 0.021666666666666667 0.0
0.0011111111111111111 0.022222222222222223 0.0
0.0011111111111111111 0.02277777777777778 0.0
0.0011111111111111111 0.023333333333333334 0.0
0.0011111111111111111 0.02388888888888889 0.0
0.0011111111111111111 0.024444444444444446 0.0
0.0011111111111111111 0.025 0.0
0.0011111111111111111 0.036111111111111115 0.0
0.0011111111111111111 0.04722222222222222 0.0
0.0011111111111111111 0.058333333333333334 0.0
0.0011111111111111111 0.06944444444444445 0.0
0.0011111111111111111 0.08055555555555556 0.0
0.0011111111111111111 0.09166666666666667 0.0
0.0011111111111111111 0.10277777777777777 0.0
0.0011111111111111111 0.1138888888888889 0.0
0.0011111111111111111 0.125 0.0
0.0011111111111111111 0.12555555555555556 0.0
0.0011111111111111111 0.12611111111111112 0.0
0.0011111111111111111 0.12666666666666668 0.0
0.0011111111111111111 0.1272222222222222 0.0
0.0011111111111111111 0.12777777777777777 0.0
0.0011111111111111111 0.12833333333333333 0.0
0.0011111111111111111 0.1288888888888889 0.0
0.0011111111111111111 0.12944444444444445 0.0
0.0011111111111111111 0.13 0.0
0.0016666666666666666 0.0 0.0
0.0016666666666666666 0.0015384615384615385 0.0
0.0016666666666666666 0.003076923076923077 0.0
0.0016666666666666666 0.004615384615384615 0.0
0.0016666666666666666 0.006153846153846154 0.0
0.0016666666666666666 0.007692307692307693 0.0
0.0016666666666666666 0.00923076923076923 0.0
0.0016666666666666666 0.010769230769230769 0.0
0.0016666666666666666 0.012307692307692308 0.0
0.0016666666666666666 0.013846153846153847 0.0
0.0016666666666666666 0.015384615384615385 0.0
0.0016666666666666666 0.016923076923076923 0.0
0.0016666666666666666 0.01846153846153846 0.0
0.0016666666666666666 0.02 0.0
0.0016666666666666666 0.020555555555555556 0.0
0.0016666666666666666 0.021111111111111112 0.0
0.0016666666666666666 0.021666666666666667 0.0
0.0016666666666666666 0.022222222222222223 0.0
0.0016666666666666666 0.02277777777777778 0.0
0.0016666666666666666 0.023333333333333334 0.0
0.0016666666666666666 0.02388888888888889 0.0
0.0016666666666666666 0.024444444444444446 0.0
0.0016666666666666666 0.025 0.0
0.0016666666666666666 0.036111111111111115 0.0
0.0016666666666666666 0.04722222222222222 0.0
0.0016666666666666666 0.058333333333333334 0.0
0.0016666666666666666 0.06944444444444445 0.0
0.0016666666666666666 0.08055555555555556 0.0
0.0016666666666666666 0.09166666666666667 0.0
0.0016666666666666666 0.10277777777777777 0.0
0.0016666666666666666 0.1138888888888889 0.0
0.0016666666666666666 0.125 0.0
0.0016666666666666666 0.12555555555555556 0.0
0.0016666666666666666 0.12611111111111112 0.0
0.0016666666666666666 0.12666666666666668 0.0
0.0016666666666666666 0.1272222222222222 0.0
0.0016666666666666666 0.12777777777777777 0.0
0.0016666666666666666 0.12833333333333333 0.0
0.0016666666666666666 0.1288888888888889 0.0
0.0016666666666666666 0.12944444444444445 0.0
0.0016666666666666666 0.13 0.0
0.0022222222222222222 0.0 0.0
0.0022222222222222222 0.0015384615384615385 0.0
0.0022222222222222222 0.003076923076923077 0.0
0.0022222222222222222 0.004615384615384615 0.0
0.0022222222222222222 0.006153846153846154 0.0
0.0022222222222222222 0.007692307692307693 0.0
0.0022222222222222222 0.00923076923076923 0.0
0.0022222222222222222 0.010769230769230769 0.0
0.0022222222222222222 0.012307692307692308 0.0
0.0022222222222222222 0.013846153846153847 0.0
0.0022222222222222222 0.015384615384615385 0.0
0.0022222222222222222 0.016923076923076923 0.0
0.0022222222222222222 0.01846153846153846 0.0
0.0022222222222222222 0.02 0.0
0.0022222222222222222 0.020555555555555556 0.0
0.0022222222222222222 0.021111111111111112 0.0
0.0022222222222222222 0.021666666666666667 0.0
0.0022222222222222222 0.022222222222222223 0.0
0.0022222222222222222 0.02277777777777778 0.0
0.0022222222222222222 0.023333333333333334 0.0
0.0022222222222222222 0.02388888888888889 0.0
0.0022222222222222222 0.024444444444444446 0.0
0.0022222222222222222 0.025 0.0
0.0022222222222222222 0.036111111111111115 0.0
0.0022222222222222222 0.04722222222222222 0.0
0.0022222222222222222 0.058333333333333334 0.0
0.0022222222222222222 0.06944444444444445 0.0
0.0022222222222222222 0.08055555555555556 0.0
0.0022222222222222222 0.09166666666666667 0.0
0.0022222222222222222 0.10277777777777777 0.0
0.0022222222222222222 0.1138888888888889 0.0
0.0022222222222222222 0.125 0.0
0.0022222222222222222 0.12555555555555556 0.0
0.0022222222222222222 0.12611111111111112 0.0
0.0022222222222222222 0.12666666666666668 0.0
0.0022222222222222222 0.1272222222222222 0.0
0.0022222222222222222 0.12777777777777777 0.0
0.0022222222222222222 0.12833333333333333 0.0
0.0022222222222222222 0.1288888888888889 0.0
0.0022222222222222222 0.12944444444444445 0.0
0.0022222222222222222 0.13 0.0
0.002777777777777778 0.0 0.0
0.002777777777777778 0.0015384615384615385 0.0
0.002777777777777778 0.003076923076923077 0.0
0.002777777777777778 0.004615384615384615 0.0
0.002777777777777778 0.006153846153846154 0.0
0.002777777777777778 0.007692307692307693 0.0
0.002777777777777778 0.00923076923076923 0.0
0.002777777777777778 0.010769230769230769 0.0
0.002777777777777778 0.012307692307692308 0.0
0.002777777777777778 0.013846153846153847 0.0
0.002777777777777778 0.015384615384615385 0.0
0.002777777777777778 0.016923076923076923 0.0
0.002777777777777778 0.01846153846153846 0.0
0.002777777777777778 0.02 0.0
0.002777777777777778 0.020555555555555556 0.0
0.002777777777777778 0.021111111111111112 0.0
0.002777777777777778 0.021666666666666667 0.0
0.002777777777777778 0.022222222222222223 0.0
0.002777777777777778 0.02277777777777778 0.0
0.002777777777777778 0.023333333333333334 0.0
0.002777777777777778 0.02388888888888889 0.0
0.002777777777777778 0.024444444444444446 0.0
0.002777777777777778 0.025 0.0
0.002777777777777778 0.036111111111111115 0.0
0.002777777777777778 0.04722222222222222 0.0
0.002777777777777778 0.058333333333333334 0.0
0.002777777777777778 0.06944444444444445 0.0
0.002777777777777778 0.08055555555555556 0.0
0.002777777777777778 0.09166666666666667 0.0
0.002777777777777778 0.10277777777777777 0.0
0.002777777777777778 0.1138888888888889 0.0
0.002777777777777778 0.125 0.0
0.002777777777777778 0.12555555555555556 0.0
0.002777777777777778 0.12611111111111112 0.0
[...]
POINT_DATA 1353
SCALARS Temperatura float 1
LOOKUP_TABLE default
68.09326894079761
67.54137068497339
66.99603490843161
66.45690801208134
65.92368417249824
65.39600026944967
64.8734016937856
64.35530229495222
63.8409332879301
63.329253158952554
62.81884747390302
62.307462550270635
61.79233188984236
61.26051989584622
60.58232758365001
59.92689338458605
59.27856557603821
58.63441735320146
57.992545236767725
57.35166058256619
56.71081129052398
56.06932047640816
55.42679032888179
44.157054547908196
40.0629097895897
38.85998754466273
38.45462416408681
38.32485809922674
38.26711234478193
38.202821754573655
38.01717881411243
37.52475527996968
37.49973047222246
37.47532159142329
37.451616812059534
37.428695150467185
37.40662502644924
37.38546319704058
37.365254049863324
37.346029187661046
37.3278072159334
68.10761564999706
67.5555999520835
67.01011920335888
66.47085206922577
65.93749299580696
65.40968155492622
64.88696520731129
64.36876138723603
63.854304111885924
63.34256893651162
62.83211513811299
62.32091790889263
61.80536343769701
61.2784247368329
60.619477845406976
59.9655268335892
59.317927275590925
58.67396601800581
58.032055792658056
57.390984670220625
56.74982089954349
56.10787952822764
55.46474257130688
44.169702070432535
40.08264180218415
38.87941685752082
38.474340077265076
38.34462541377058
38.28690775969913
38.22260333415332
38.037321223284025
37.54349070525581
37.51839113093845
37.49391184771192
37.470142017726864
37.447161468365394
37.425039217852124
37.40383242021074
37.38358569929313
37.364330782058175
37.34608632768895
68.12206094446563
67.56998559189341
67.02439903600353
66.48503068051731
65.95158327645018
65.42370293003732
64.90094418800766
64.38273386029523
63.86832152456272
63.356703718347845
62.84649690613281
62.335741177242134
61.82112975275199
61.299152107035596
60.64877746160033
60.00086105059709
59.35604093657967
58.713800525353896
58.07302656787792
57.43269459402721
56.79191001552931
56.14995230956782
55.50633343788792
44.15806697509987
40.10089300378882
38.899114064630155
38.49575753444145
38.36645251145879
38.30894114383894
38.24472097897391
38.06091305111256
37.56385739639612
37.538583607687734
37.51394204400129
37.490024742083975
37.46691383480856
37.44467997601781
37.423381345451396
37.40306313085682
37.38375732366216
37.365482678925
68.13663445737336
67.58452891976006
67.03887395422596
66.49944244176058
65.96595278138346
65.4380613360469
64.91533423694825
64.397214090271
63.88297453156912
63.37165098777147
62.861937254126325
62.3519895704872
61.839151670596316
61.32145061184559
60.67731351994273
60.03467771034567
59.393808565521354
58.75441872542109
58.115817434822716
57.477130151017
56.837465120028824
56.19600549497925
55.55211295768734
44.12163838232553
40.117918889384704
38.91901069115782
38.51890308279649
38.390334964208805
38.33321992952583
38.26916464380041
38.08797953399481
37.585848794424415
37.56029803025726
37.535399331550536
37.51124980174253
37.48793546192369
37.465529546314386
37.44409171242344
37.42366786389066
37.40429026178657
37.385977717422996
68.15135186209226
67.59923401390208
67.05354283942003
66.51408492965169
65.98059777274541
65.45275159383448
64.93012824532283
64.41219186806292
63.898248469121285
63.3873870166416
62.87839339383871
62.36961206189209
61.85897430475462
61.34514547900224
60.70638589205389
60.06872651148761
59.43217417070178
58.79643330229383
58.160910957988456
57.52478581278291
56.887090577066125
56.24681076327612
55.60302655672625
44.059563242746606
40.13415662774029
38.938987607841845
38.54382173769603
38.416263221996225
38.35975539947741
38.29591557831824
38.118560743126416
37.60945298000769
37.58351646517432
37.55826050651485
37.53379008230682
37.510196758707224
37.48755699068833
37.465931978640306
37.44536816245353
37.425897849460966
37.4075397292291
68.1662218708659
67.61410417525894
67.06840418936724
66.52895461220234
65.99551302796405
65.46776651444455
64.94531634642468
64.42765325740469
63.91412315045519
63.40387932818664
62.895816048980386
62.38849701487038
61.88030252795104
61.37016931849703
60.73650190949326
60.1037744566603
59.47184661362101
58.84037669906369
58.208781095697056
57.57621107637173
56.94154566254719
56.303435176170616
55.66046837080989
43.970617323265536
40.15024115662926
38.958867533289144
38.57057998629614
38.444221413360836
38.38856333479488
38.32494570526226
38.15271208279216
37.634652973157834
37.60821199441246
37.582490397187286
37.55760499300003
37.533654187746784
37.51071748953305
37.48885693559347
37.46811888712463
37.44853513088026
37.4301238697958
68.18124903208125
67.62914105159994
67.08345579717688
66.54404686685234
66.01069186590105
65.48309698509046
64.96088609699092
64.44358087177852
63.9305732771467
63.421089238294485
62.91414375636429
62.40852002256782
61.90293225150107
61.396456941837315
60.76785733518826
60.140175304373024
59.51320275757448
58.886583467094106
58.259753986755996
57.63186531784994
57.00162624623616
56.36721065272192
55.726372246810705
43.853159457313986
40.167029502002535
38.978403841518876
38.59927027032379
38.4741855533304
38.419664967422605
38.356216746582156
38.19050491136787
37.66142747233364
37.63434625816023
37.60803852222763
37.58263776019012
37.558248898128795
37.53495142573271
37.5128073162395
37.491861433645234
37.47214405545008
37.453672331810424
68.1964350103928
67.6443445305662
67.09869448508034
66.55935597174982
66.02612619444663
65.4987320782866
64.97682269023866
64.45995417616045
63.94756928161316
63.43897255381399
62.93330621212333
62.429559934859405
61.92670563693663
61.42392617936739
60.80049149669103
60.178042530864815
59.5563641185899
58.93513698184397
58.31388295358271
57.69187117793567
57.06792667553227
56.43962006547704
55.80336615234126
43.705061173719
40.185635930992554
38.99726473968704
38.63001729852504
38.50612102553785
38.453088282521556
38.38967911820618
38.23202710784056
37.689752739292025
37.661862376553124
37.63482946596266
37.60881464327372
37.583904494775446
37.56018347324104
37.53770959492059
37.51652391197549
37.4966538309319
37.47811474827334
68.21177926738507
67.65971284475134
67.11411596767377
66.57487509191074
66.04180657239436
65.51465918250507
64.99310918375855
64.47674988144055
63.96507808037117
63.45748055568072
62.95322821250663
62.45150195426228
61.95148710426511
61.45247636562573
60.83434765177523
60.21733254991604
59.601251650961984
58.98587003078733
58.37086891716105
57.75579549020851
57.139931305382035
56.522174358629556
55.89503384375474
43.5235983800679
40.207482243510526
39.015011327124924
38.662986723290615
38.539979160682975
38.48886965567718
38.425270924592105
38.277382217930075
37.71961074729001
37.690609234684025
37.662786620767875
37.63603628265337
37.61052494954144
37.586322179292885
37.56347630936805
37.542021743501536
37.52198162309829
37.50336891771803
68.22727948198704
67.6752427265973
67.12971481100661
66.59059628116816
66.05772228270405
65.53086414782031
65.00972674709584
64.49394237413534
63.98306378996346
63.47656124186966
62.97383233213216
62.47423660117637
61.977151047331304
61.481991450510264
60.86930799012672
60.25789891695741
59.64764241633148
59.03841209808605
58.43008758020085
57.822581512391224
57.21590029104849
56.61026735117663
40.46168663647732
40.46168663647732
40.46168663647732
40.46168663647732
40.46168663647732
40.46168663647732
40.46168663647732
40.46168663647732
40.46168663647732
40.46168663647732
37.720711099335155
37.69175868529274
37.66417339085185
37.637994185695526
37.613260974180825
37.59000723281532
37.568258807546364
37.548033660291594
37.5293418919986
68.54318801738415
67.9922360029384
67.44949400887178
66.91501775919104
66.3889004635783
65.87128172402048
65.36236216383082
64.86242489949672
64.37186523131228
63.89123019307263
63.42126943354146
62.96299902284098
62.517785050630806
62.08747018460197
61.56562509243321
61.04774097580468
60.53432184843985
60.025901237338566
59.52304655684886
59.02635957612199
58.536468266202725
58.05400193807622
40.46168663647732
40.46168663647732
40.46168663647732
40.46168663647732
40.46168663647732
40.46168663647732
40.46168663647732
40.46168663647732
40.46168663647732
40.46168663647732
38.29355986300466
38.24719290418316
38.204839925473514
38.1663756217481
38.13169470153012
38.100712227078915
38.073362621946806
38.0495987343811
38.029391121835346
68.84362244555585
68.29342718693549
67.75245610695666
67.22075038800808
66.69837323051848
66.18540865847929
65.68195883364427
65.1881389605516
64.70406838695068
64.22985584820313
63.76557601352027
63.31123328154233
62.8667056444121
62.43165424043581
61.898725996077886
61.368032082227906
60.839404143982854
60.312652654105314
59.78756118057074
59.263881205359866
58.74132868612517
58.219584516130844
40.46168663647732
40.46168663647732
40.46168663647732
40.46168663647732
40.46168663647732
40.46168663647732
40.46168663647732
40.46168663647732
40.46168663647732
40.46168663647732
38.445317966320225
38.40941383700844
38.37566118560418
38.34412947571122
38.31487452752171
38.287939581648644
38.26335647591944
38.24114658268574
38.22132147957891
69.0840329176229
68.53404452807845
67.99328703686254
67.46176915966211
66.93949944217943
66.42648499355538
65.92272988930526
65.4282334526665
64.94298882109425
64.4669825312525
64.00019635145905
63.542613409021136
63.09423234047247
62.65509660934443
62.11730574504958
61.58200815690736
61.0492454506104
60.51906776561018
59.991536748041575
59.46672863736746
58.94473720903761
58.42567604786112
40.46168663647732
40.46168663647732
40.46168663647732
40.46168663647732
40.46168663647732
40.46168663647732
40.46168663647732
40.46168663647732
40.46168663647732
40.46168663647732
38.50165800112579
38.46542011032712
38.43157766961037
38.40010568355596
38.370984232158705
38.34419770994552
38.31973414439001
38.29758467435549
38.27774318491315
69.25847677326281
68.70853415761891
68.16762496980625
67.63575397750645
67.11292425750607
66.59913734407975
66.09439346645783
65.59869189202317
65.11203135165856
64.63441043303158
64.16582765648448
63.70628062150591
63.25576292106551
62.8142560996083
62.27328839878241
61.73471912826217
61.19853533075798
60.66472099354844
60.133255857544874
59.60411409367208
59.077262885656204
58.55266102946455
40.46168663647732
40.46168663647732
40.46168663647732
40.46168663647732
40.46168663647732
40.46168663647732
40.46168663647732
40.46168663647732
40.46168663647732
40.46168663647732
38.518435205425554
38.48296042143196
38.44971044980904
38.41869167046682
38.389908417524246
38.3633633379832
38.33905769003655
38.31699156608733
38.297164046596464
69.37532612929625
68.82540579455707
68.28437089519632
67.75222645507682
67.22897595772572
66.7146213237297
66.20916286265658
65.71259918297592
65.22492704710649
64.7461411756814
64.27623404821296
63.815195847141474
63.363014927491264
62.91967971408376
62.37634628398925
61.83540690971085
61.29686227035069
60.76071394765048
60.226964850682045
59.695619712272745
59.16668565888022
58.6401728378712
40.46168663647732
40.46168663647732
40.46168663647732
40.46168663647732
40.46168663647732
40.46168663647732
40.46168663647732
40.46168663647732
40.46168663647732
40.46168663647732
38.52416807646968
38.488734368033555
38.45554130217451
38.424584487474
38.3958601410979
38.36936494215399
38.34509591499261
38.32305034363673
38.303225713584006
69.44234476200481
68.8924361500171
68.3513258943293
67.81901892940022
67.29551864546796
66.78082688687417
66.27494395555132
65.77786862627111
65.28959818187379
64.81012847584395
64.33945402183257
63.877568083619245
63.42446266461079
62.980128111687215
62.435502661942714
61.89326009286014
61.35339817800968
60.81591433811895
60.28080549051896
59.74806786463795
59.21769677786308
58.689686370199304
40.46168663647732
40.46168663647732
40.46168663647732
40.46168663647732
40.46168663647732
40.46168663647732
40.46168663647732
40.46168663647732
40.46168663647732
40.46168663647732
38.525905138423425
38.49053289140748
38.457386642741206
38.42646514681084
38.3977668916618
38.371290157640495
38.34703306245808
38.32499359358616
38.30516962996839
69.46417451139041
68.91426955447056
68.37313428498845
67.84077367551868
67.3171912023449
66.80238885132253
66.29636712456
65.79912504471577
65.31066015198806
64.83096848760947
64.36004455911008
63.89788129324929
63.44447002007979
62.99980063485174
62.45474050362924
61.91206058996514
61.37175956304318
60.83383620703063
60.29828950779864
59.76511876238617
59.2343237164331
58.705904733291526
40.46168663647732
40.46168663647732
40.46168663647732
40.46168663647732
40.46168663647732
40.46168663647732
40.46168663647732
40.46168663647732
40.46168663647732
40.46168663647732
38.52631147300409
38.49094208197331
38.457800595395966
38.426884539541135
38.39819154027524
38.37171928671002
38.347465503853584
38.325427933223
38.30560432000363
69.44234476200522
68.89243615001752
68.35132589432969
67.81901892940057
67.29551864546826
66.7808268868744
66.27494395555156
65.77786862627138
65.28959818187407
64.81012847584427
64.33945402183289
63.87756808361958
63.42446266461114
62.98012811168757
62.43550266194309
61.8932600928605
61.35339817801003
60.81591433811927
60.28080549051927
59.74806786463828
59.21769677786342
58.68968637019966
40.46168663647732
40.46168663647732
40.46168663647732
40.46168663647732
40.46168663647732
40.46168663647732
40.46168663647732
40.46168663647732
40.46168663647732
40.46168663647732
38.52590513842377
38.490532891407845
38.457386642741575
38.4264651468112
38.39776689166217
38.37129015764088
38.34703306245847
38.32499359358654
38.30516962996877
69.37532612929684
68.82540579455767
68.28437089519691
67.7522264550774
67.22897595772628
66.71462132373026
66.20916286265711
65.71259918297646
65.22492704710699
64.7461411756819
64.27623404821348
63.815195847142
63.363014927491804
62.91967971408433
62.376346283989804
61.83540690971139
61.29686227035123
60.760713947651006
60.22696485068257
59.69561971227328
59.166685658880745
58.6401728378717
40.46168663647732
40.46168663647732
40.46168663647732
40.46168663647732
40.46168663647732
40.46168663647732
40.46168663647732
40.46168663647732
40.46168663647732
40.46168663647732
38.524168076470566
38.48873436803445
38.45554130217543
38.42458448747495
38.395860141098844
38.36936494215493
38.345095914993564
38.323050343637696
38.30322571358497
69.25847677326324
68.70853415761931
68.16762496980664
67.6357539775068
67.1129242575064
66.59913734408009
66.09439346645814
65.59869189202344
65.11203135165884
64.63441043303187
64.16582765648481
63.70628062150627
63.25576292106588
62.81425609960867
62.2732883987828
61.73471912826256
61.198535330758354
60.6647209935488
60.13325585754516
59.60411409367231
59.0772628856564
58.55266102946473
40.46168663647732
40.46168663647732
40.46168663647732
40.46168663647732
40.46168663647732
40.46168663647732
40.46168663647732
40.46168663647732
40.46168663647732
40.46168663647732
38.518435205427785
38.48296042143426
38.44971044981138
38.418691670469165
38.389908417526584
38.363363337985504
38.33905769003879
38.31699156608952
38.29716404659863
69.08403291762319
68.53404452807874
67.99328703686287
67.46176915966248
66.9394994421798
66.42648499355573
65.92272988930561
65.42823345266684
64.94298882109462
64.46698253125287
64.00019635145941
63.54261340902148
63.09423234047278
62.65509660934471
62.117305745049876
61.58200815690761
61.04924545061068
60.51906776561049
59.991536748041945
59.466728637367865
58.944737209038024
58.425676047861515
40.46168663647732
40.46168663647732
40.46168663647732
40.46168663647732
40.46168663647732
40.46168663647732
40.46168663647732
40.46168663647732
40.46168663647732
40.46168663647732
38.50165800112756
38.46542011032892
38.43157766961221
38.40010568355784
38.37098423216062
38.34419770994746
38.31973414439199
38.297584674357495
38.27774318491517
68.84362244555564
68.29342718693528
67.7524561069564
67.2207503880078
66.69837323051819
66.18540865847903
65.68195883364402
65.18813896055136
64.70406838695044
64.22985584820293
63.765576013520146
63.31123328154224
62.86670564441203
62.43165424043574
61.898725996077815
61.368032082227856
60.8394041439828
60.31265265410527
59.78756118057066
59.26388120535976
58.741328686125044
58.21958451613067
40.46168663647732
40.46168663647732
40.46168663647732
40.46168663647732
40.46168663647732
40.46168663647732
40.46168663647732
40.46168663647732
40.46168663647732
40.46168663647732
38.445317966321554
38.40941383700979
38.37566118560554
38.34412947571258
38.31487452752307
38.28793958165
38.263356475920766
38.241146582687044
38.22132147958022
68.5431880173836
67.99223600293787
67.44949400887127
66.91501775919055
66.3889004635778
65.87128172402
65.3623621638304
64.86242489949629
64.37186523131187
63.891230193072246
63.42126943354115
62.962999022840734
62.51778505063058
62.08747018460178
61.56562509243306
61.04774097580453
60.534321848439724
60.025901237338424
59.52304655684872
59.026359576121834
58.536468266202554
58.05400193807604
40.46168663647732
40.46168663647732
40.46168663647732
40.46168663647732
40.46168663647732
40.46168663647732
40.46168663647732
40.46168663647732
40.46168663647732
40.46168663647732
38.29355986300559
38.24719290418411
38.2048399254745
38.16637562174911
38.13169470153113
38.10071222707993
38.073362621947844
38.04959873438216
38.029391121836404
68.22727948198636
67.67524272659662
67.129714811006
66.59059628116765
66.05772228270368
65.53086414782004
65.00972674709557
64.49394237413507
63.9830637899632
63.47656124186939
62.97383233213183
62.47423660117605
61.97715104733102
61.48199145051004
60.869307990126565
60.25789891695736
59.64764241633152
59.03841209808618
58.430087580201025
57.82258151239146
57.21590029104874
56.61026735117687
40.46168663647732
40.46168663647732
40.46168663647732
40.46168663647732
40.46168663647732
40.46168663647732
40.46168663647732
40.46168663647732
40.46168663647732
40.46168663647732
37.72071109933623
37.691758685293834
37.66417339085296
37.63799418569664
37.61326097418196
37.59000723281647
37.568258807547494
37.54803366029268
37.52934189199968
68.21177926738436
67.65971284475059
67.11411596767317
66.57487509191022
66.04180657239405
65.51465918250483
64.99310918375825
64.47674988144034
63.9650780803709
63.457480555680455
62.9532282125063
62.45150195426195
61.951487104264785
61.45247636562551
60.83434765177508
60.217332549916016
59.601251650962034
58.98587003078744
58.37086891716126
57.75579549020878
57.13993130538228
56.52217435862984
55.89503384375501
43.52359838006904
40.20748224351046
39.01501132712487
38.662986723291304
38.5399791606832
38.48886965567744
38.4252709245925
38.27738221792957
37.71961074729104
37.6906092346851
37.66278662076895
37.63603628265447
37.61052494954255
37.586322179293994
37.56347630936913
37.54202174350262
37.52198162309937
37.50336891771907
68.19643501039201
67.64434453056549
67.09869448507976
66.55935597174937
66.0261261944463
65.49873207828634
64.9768226902384
64.4599541761602
63.94756928161289
63.43897255381372
62.93330621212294
62.429559934859086
61.926705636936305
61.42392617936721
60.80049149669092
60.178042530864765
59.556364118589954
58.935136981844096
58.313882953582926
57.691871177935916
57.06792667553254
56.439620065477364
55.80336615234164
43.70506117372013
40.185635930992554
38.99726473968703
38.63001729852575
38.50612102553809
38.45308828252185
38.38967911820663
38.23202710784004
37.68975273929308
37.661862376554204
37.63482946596374
37.60881464327478
37.58390449477652
37.56018347324213
37.53770959492165
37.51652391197654
37.49665383093294
37.47811474827436
68.1812490320805
67.62914105159923
67.0834557971763
66.54404686685186
66.01069186590071
65.48309698509019
64.96088609699062
64.44358087177827
63.93057327714637
63.42108923829424
62.91414375636391
62.4085200225675
61.902932251500744
61.39645694183715
60.767857335188154
60.14017530437295
59.513202757574476
58.886583467094226
58.259753986756216
57.631865317850206
57.00162624623646
56.36721065272232
55.726372246811124
43.853159457315094
40.167029502002656
38.978403841518926
38.59927027032451
38.474185553330656
38.41966496742288
38.356216746582646
38.190504911367334
37.66142747233472
37.634346258161315
37.608038522228696
37.582637760191176