# vtk DataFile Version 2.0
Niestacjonarne zagadnienie cieplne - ogrzewanie wody w garnku stalowym
ASCII
DATASET UNSTRUCTURED_GRID
POINTS 1353 float
0.0 0.0 0.0
0.0 0.0015384615384615385 0.0
0.0 0.003076923076923077 0.0
0.0 0.004615384615384615 0.0
0.0 0.006153846153846154 0.0
0.0 0.007692307692307693 0.0
0.0 0.00923076923076923 0.0
0.0 0.010769230769230769 0.0
0.0 0.012307692307692308 0.0
0.0 0.013846153846153847 0.0
0.0 0.015384615384615385 0.0
0.0 0.016923076923076923 0.0
0.0 0.01846153846153846 0.0
0.0 0.02 0.0
0.0 0.020555555555555556 0.0
0.0 0.021111111111111112 0.0
0.0 0.021666666666666667 0.0
0.0 0.022222222222222223 0.0
0.0 0.02277777777777778 0.0
0.0 0.023333333333333334 0.0
0.0 0.02388888888888889 0.0
0.0 0.024444444444444446 0.0
0.0 0.025 0.0
0.0 0.036111111111111115 0.0
0.0 0.04722222222222222 0.0
0.0 0.058333333333333334 0.0
0.0 0.06944444444444445 0.0
0.0 0.08055555555555556 0.0
0.0 0.09166666666666667 0.0
0.0 0.10277777777777777 0.0
0.0 0.1138888888888889 0.0
0.0 0.125 0.0
0.0 0.12555555555555556 0.0
0.0 0.12611111111111112 0.0
0.0 0.12666666666666668 0.0
0.0 0.1272222222222222 0.0
0.0 0.12777777777777777 0.0
0.0 0.12833333333333333 0.0
0.0 0.1288888888888889 0.0
0.0 0.12944444444444445 0.0
0.0 0.13 0.0
5.555555555555556E-4 0.0 0.0
5.555555555555556E-4 0.0015384615384615385 0.0
5.555555555555556E-4 0.003076923076923077 0.0
5.555555555555556E-4 0.004615384615384615 0.0
5.555555555555556E-4 0.006153846153846154 0.0
5.555555555555556E-4 0.007692307692307693 0.0
5.555555555555556E-4 0.00923076923076923 0.0
5.555555555555556E-4 0.010769230769230769 0.0
5.555555555555556E-4 0.012307692307692308 0.0
5.555555555555556E-4 0.013846153846153847 0.0
5.555555555555556E-4 0.015384615384615385 0.0
5.555555555555556E-4 0.016923076923076923 0.0
5.555555555555556E-4 0.01846153846153846 0.0
5.555555555555556E-4 0.02 0.0
5.555555555555556E-4 0.020555555555555556 0.0
5.555555555555556E-4 0.021111111111111112 0.0
5.555555555555556E-4 0.021666666666666667 0.0
5.555555555555556E-4 0.022222222222222223 0.0
5.555555555555556E-4 0.02277777777777778 0.0
5.555555555555556E-4 0.023333333333333334 0.0
5.555555555555556E-4 0.02388888888888889 0.0
5.555555555555556E-4 0.024444444444444446 0.0
5.555555555555556E-4 0.025 0.0
5.555555555555556E-4 0.036111111111111115 0.0
5.555555555555556E-4 0.04722222222222222 0.0
5.555555555555556E-4 0.058333333333333334 0.0
5.555555555555556E-4 0.06944444444444445 0.0
5.555555555555556E-4 0.08055555555555556 0.0
5.555555555555556E-4 0.09166666666666667 0.0
5.555555555555556E-4 0.10277777777777777 0.0
5.555555555555556E-4 0.1138888888888889 0.0
5.555555555555556E-4 0.125 0.0
5.555555555555556E-4 0.12555555555555556 0.0
5.555555555555556E-4 0.12611111111111112 0.0
5.555555555555556E-4 0.12666666666666668 0.0
5.555555555555556E-4 0.1272222222222222 0.0
5.555555555555556E-4 0.12777777777777777 0.0
5.555555555555556E-4 0.12833333333333333 0.0
5.555555555555556E-4 0.1288888888888889 0.0
5.555555555555556E-4 0.12944444444444445 0.0
5.555555555555556E-4 0.13 0.0
0.0011111111111111111 0.0 0.0
0.0011111111111111111 0.0015384615384615385 0.0
0.0011111111111111111 0.003076923076923077 0.0
0.0011111111111111111 0.004615384615384615 0.0
0.0011111111111111111 0.006153846153846154 0.0
0.0011111111111111111 0.007692307692307693 0.0
0.0011111111111111111 0.00923076923076923 0.0
0.0011111111111111111 0.010769230769230769 0.0
0.0011111111111111111 0.012307692307692308 0.0
0.0011111111111111111 0.013846153846153847 0.0
0.0011111111111111111 0.015384615384615385 0.0
0.0011111111111111111 0.016923076923076923 0.0
0.0011111111111111111 0.01846153846153846 0.0
0.0011111111111111111 0.02 0.0
0.0011111111111111111 0.020555555555555556 0.0
0.0011111111111111111 0.021111111111111112 0.0
0.0011111111111111111 0.021666666666666667 0.0
0.0011111111111111111 0.022222222222222223 0.0
0.0011111111111111111 0.02277777777777778 0.0
0.0011111111111111111 0.023333333333333334 0.0
0.0011111111111111111 0.02388888888888889 0.0
0.0011111111111111111 0.024444444444444446 0.0
0.0011111111111111111 0.025 0.0
0.0011111111111111111 0.036111111111111115 0.0
0.0011111111111111111 0.04722222222222222 0.0
0.0011111111111111111 0.058333333333333334 0.0
0.0011111111111111111 0.06944444444444445 0.0
0.0011111111111111111 0.08055555555555556 0.0
0.0011111111111111111 0.09166666666666667 0.0
0.0011111111111111111 0.10277777777777777 0.0
0.0011111111111111111 0.1138888888888889 0.0
0.0011111111111111111 0.125 0.0
0.0011111111111111111 0.12555555555555556 0.0
0.0011111111111111111 0.12611111111111112 0.0
0.0011111111111111111 0.12666666666666668 0.0
0.0011111111111111111 0.1272222222222222 0.0
0.0011111111111111111 0.12777777777777777 0.0
0.0011111111111111111 0.12833333333333333 0.0
0.0011111111111111111 0.1288888888888889 0.0
0.0011111111111111111 0.12944444444444445 0.0
0.0011111111111111111 0.13 0.0
0.0016666666666666666 0.0 0.0
0.0016666666666666666 0.0015384615384615385 0.0
0.0016666666666666666 0.003076923076923077 0.0
0.0016666666666666666 0.004615384615384615 0.0
0.0016666666666666666 0.006153846153846154 0.0
0.0016666666666666666 0.007692307692307693 0.0
0.0016666666666666666 0.00923076923076923 0.0
0.0016666666666666666 0.010769230769230769 0.0
0.0016666666666666666 0.012307692307692308 0.0
0.0016666666666666666 0.013846153846153847 0.0
0.0016666666666666666 0.015384615384615385 0.0
0.0016666666666666666 0.016923076923076923 0.0
0.0016666666666666666 0.01846153846153846 0.0
0.0016666666666666666 0.02 0.0
0.0016666666666666666 0.020555555555555556 0.0
0.0016666666666666666 0.021111111111111112 0.0
0.0016666666666666666 0.021666666666666667 0.0
0.0016666666666666666 0.022222222222222223 0.0
0.0016666666666666666 0.02277777777777778 0.0
0.0016666666666666666 0.023333333333333334 0.0
0.0016666666666666666 0.02388888888888889 0.0
0.0016666666666666666 0.024444444444444446 0.0
0.0016666666666666666 0.025 0.0
0.0016666666666666666 0.036111111111111115 0.0
0.0016666666666666666 0.04722222222222222 0.0
0.0016666666666666666 0.058333333333333334 0.0
0.0016666666666666666 0.06944444444444445 0.0
0.0016666666666666666 0.08055555555555556 0.0
0.0016666666666666666 0.09166666666666667 0.0
0.0016666666666666666 0.10277777777777777 0.0
0.0016666666666666666 0.1138888888888889 0.0
0.0016666666666666666 0.125 0.0
0.0016666666666666666 0.12555555555555556 0.0
0.0016666666666666666 0.12611111111111112 0.0
0.0016666666666666666 0.12666666666666668 0.0
0.0016666666666666666 0.1272222222222222 0.0
0.0016666666666666666 0.12777777777777777 0.0
0.0016666666666666666 0.12833333333333333 0.0
0.0016666666666666666 0.1288888888888889 0.0
0.0016666666666666666 0.12944444444444445 0.0
0.0016666666666666666 0.13 0.0
0.0022222222222222222 0.0 0.0
0.0022222222222222222 0.0015384615384615385 0.0
0.0022222222222222222 0.003076923076923077 0.0
0.0022222222222222222 0.004615384615384615 0.0
0.0022222222222222222 0.006153846153846154 0.0
0.0022222222222222222 0.007692307692307693 0.0
0.0022222222222222222 0.00923076923076923 0.0
0.0022222222222222222 0.010769230769230769 0.0
0.0022222222222222222 0.012307692307692308 0.0
0.0022222222222222222 0.013846153846153847 0.0
0.0022222222222222222 0.015384615384615385 0.0
0.0022222222222222222 0.016923076923076923 0.0
0.0022222222222222222 0.01846153846153846 0.0
0.0022222222222222222 0.02 0.0
0.0022222222222222222 0.020555555555555556 0.0
0.0022222222222222222 0.021111111111111112 0.0
0.0022222222222222222 0.021666666666666667 0.0
0.0022222222222222222 0.022222222222222223 0.0
0.0022222222222222222 0.02277777777777778 0.0
0.0022222222222222222 0.023333333333333334 0.0
0.0022222222222222222 0.02388888888888889 0.0
0.0022222222222222222 0.024444444444444446 0.0
0.0022222222222222222 0.025 0.0
0.0022222222222222222 0.036111111111111115 0.0
0.0022222222222222222 0.04722222222222222 0.0
0.0022222222222222222 0.058333333333333334 0.0
0.0022222222222222222 0.06944444444444445 0.0
0.0022222222222222222 0.08055555555555556 0.0
0.0022222222222222222 0.09166666666666667 0.0
0.0022222222222222222 0.10277777777777777 0.0
0.0022222222222222222 0.1138888888888889 0.0
0.0022222222222222222 0.125 0.0
0.0022222222222222222 0.12555555555555556 0.0
0.0022222222222222222 0.12611111111111112 0.0
0.0022222222222222222 0.12666666666666668 0.0
0.0022222222222222222 0.1272222222222222 0.0
0.0022222222222222222 0.12777777777777777 0.0
0.0022222222222222222 0.12833333333333333 0.0
0.0022222222222222222 0.1288888888888889 0.0
0.0022222222222222222 0.12944444444444445 0.0
0.0022222222222222222 0.13 0.0
0.002777777777777778 0.0 0.0
0.002777777777777778 0.0015384615384615385 0.0
0.002777777777777778 0.003076923076923077 0.0
0.002777777777777778 0.004615384615384615 0.0
0.002777777777777778 0.006153846153846154 0.0
0.002777777777777778 0.007692307692307693 0.0
0.002777777777777778 0.00923076923076923 0.0
0.002777777777777778 0.010769230769230769 0.0
0.002777777777777778 0.012307692307692308 0.0
0.002777777777777778 0.013846153846153847 0.0
0.002777777777777778 0.015384615384615385 0.0
0.002777777777777778 0.016923076923076923 0.0
0.002777777777777778 0.01846153846153846 0.0
0.002777777777777778 0.02 0.0
0.002777777777777778 0.020555555555555556 0.0
0.002777777777777778 0.021111111111111112 0.0
0.002777777777777778 0.021666666666666667 0.0
0.002777777777777778 0.022222222222222223 0.0
0.002777777777777778 0.02277777777777778 0.0
0.002777777777777778 0.023333333333333334 0.0
0.002777777777777778 0.02388888888888889 0.0
0.002777777777777778 0.024444444444444446 0.0
0.002777777777777778 0.025 0.0
0.002777777777777778 0.036111111111111115 0.0
0.002777777777777778 0.04722222222222222 0.0
0.002777777777777778 0.058333333333333334 0.0
0.002777777777777778 0.06944444444444445 0.0
0.002777777777777778 0.08055555555555556 0.0
0.002777777777777778 0.09166666666666667 0.0
0.002777777777777778 0.10277777777777777 0.0
0.002777777777777778 0.1138888888888889 0.0
0.002777777777777778 0.125 0.0
0.002777777777777778 0.12555555555555556 0.0
0.002777777777777778 0.12611111111111112 0.0
[...]
POINT_DATA 1353
SCALARS Temperatura float 1
LOOKUP_TABLE default
120.41626103817163
119.90628870541562
119.40046860180591
118.89840174482909
118.39970399923203
117.90389412650971
117.41034798084836
116.91823812742781
116.4264506620259
115.9334220274818
115.43696663458208
114.9332881631579
114.417820889901
113.86323575122722
113.13253055084964
112.45251486096183
111.78829428180704
111.13389549648724
110.48564709095045
109.84122239166389
109.19895979949274
108.55765853050562
107.91650867818716
96.7653995894638
92.72182244370366
91.53131226244373
91.12762876960802
90.9899181283269
90.9025810826651
90.74885666104932
90.26043174124598
88.93307743531768
88.85867875844961
88.78468839519137
88.71116775351543
88.63816063159847
88.56569820704983
88.49380283018478
88.42249045258079
88.35177189283134
88.28165332798126
120.44617803402295
119.93610164737125
119.43015113743668
118.92796000129115
118.42914477182373
117.93322762504187
117.4395875274721
116.94740322333091
116.45556470579002
115.96254400536876
115.46609103893496
114.96292565630462
114.44654222626808
113.90311086188898
113.21664486812305
112.54048437148
111.87840613035921
111.22492859444613
110.57711407846958
109.93283432985723
109.2905075687032
108.6489559273826
108.007367928548
96.83172644186529
92.7950667677059
91.60427234559516
91.20087098536554
91.06321553389787
90.97592590924907
90.82217417657728
90.33459362721304
89.00413992635282
88.92962308311985
88.85552661977384
88.7819090433927
88.70881159138979
88.63626355454899
88.56428613681301
88.49289474842074
88.42210004538302
88.35190820404272
120.47618931513269
119.96606847352507
119.46003230616998
118.95776570958812
118.45889477625929
117.96295032712032
117.46932205317081
116.97720391692911
116.48551355444452
115.9927604074213
115.49681060293928
114.99451368733729
114.48004126949697
113.94762872427673
113.28043542105519
112.6177901327856
111.96182865286649
111.31208138889433
110.66672962055036
110.02414126289594
109.38292017299122
108.74193545959542
108.10035671979901
96.87354433585084
92.86616696497897
91.67684928394617
91.2751511605563
91.13793245351175
91.05096961859947
90.89743756536102
90.41341833681724
89.07634603492211
89.0016297840285
88.92736945778333
88.85361411536825
88.78039688076326
88.70774128511871
88.63566522864542
88.56418272786078
88.49330416495941
88.42303585367998
120.50632381227503
119.99618977047557
119.49011084317438
118.98781649859448
118.48895053743739
117.99305753443561
117.49954458979664
117.00763144206289
116.51627753139796
116.0240635583414
115.52900843943867
115.02819487323501
114.51724272968931
113.9939009385984
113.34001475024033
112.68848349038917
112.04059693913952
111.39643084894973
110.75518834318815
110.11568989348976
109.47671775354799
108.83715088727888
108.19607858218119
96.8903385481732
92.93537611167076
91.74897451649836
91.35049522226251
91.21406225099882
91.12772355333958
90.97461906311705
90.4969644464883
89.14965183872422
89.07466469357057
89.00019287115853
88.92626739072684
88.85290667328866
88.78012464054113
88.70793443853312
88.63634874505695
88.56537831309485
88.49503019469425
120.53659603634847
120.02646840997
119.52038428584603
119.01810834157982
118.51930628261874
118.0235412975507
117.53024408875014
117.03866934345793
116.54783223847467
116.05641143049148
115.5626030439141
115.06387457540778
114.55713253186941
114.04153615540645
113.39835626219877
112.75656434762655
112.11685818740324
111.4793146996837
110.84342485686545
110.20826991868621
109.57270297132499
108.93550735374563
108.2955642216248
96.8812508413458
93.00312750508044
91.82052929523981
91.42694761877368
91.29159201002798
91.20620622448666
91.05366986486722
90.58532835054211
89.22398000154658
89.14866990229568
89.07395837433612
88.99984565711502
88.92632717386577
88.8534039688655
88.78108482060462
88.70938302328521
88.63831172570313
88.56788006455103
120.5670130877798
120.05690602081982
119.55084927082355
119.04863549215774
118.54995398206059
118.05439064349788
117.56140526577654
117.0702953593779
116.58014423859005
116.08974674612284
115.59750454481755
115.10132827903732
114.59907365999399
114.09042049409797
113.45666911188366
112.82384082427022
112.19227494416293
111.56193893415075
110.93238399202345
110.30276171830576
109.67186947678654
109.03823668913041
108.40031851711461
96.84505178344345
93.07005038655474
91.89133729312833
91.50457435220123
91.37050114104979
91.28644450146379
91.13451825308583
90.67864734914775
89.29921411523887
89.22356428569424
89.14861817064417
89.07432485607454
89.00064626302076
88.92757011627202
88.85510542717401
88.7832715989351
88.71208806362058
88.6415682609333
120.59757746874214
120.08750212914399
119.58150123375326
119.07939053112038
118.58088342518691
118.08559173351149
117.59300894967288
117.10248195543556
116.61317184623
116.12400259408761
115.63360139056465
115.14031064392894
114.64265105613599
114.1404739226045
113.51549861608503
112.89124473817206
112.26784291622202
111.64517754115417
111.02281714526315
110.39995018588766
109.77525859770272
109.1468521848839
108.51240446508162
96.78009644129938
93.13699384096016
91.9611535337316
91.58346751547043
91.45075929291473
91.36847539140317
91.21706678060397
90.77710449032082
89.37518915021637
89.29924654354167
89.22412752516584
89.14969343864038
89.07586316759176
89.00261832352514
88.92998402326947
88.85799537968973
88.78668372150288
88.71606963996214
120.6282883819294
120.11825407164838
119.61233416856824
119.11036439402713
118.6120823259082
118.11712806601362
117.62503248477996
117.13519688747394
116.64686686841914
116.15910377211513
115.67076760440563
115.1805918641383
114.68756895316244
114.19160413562317
113.5750824423139
112.95923811239398
112.34409616157605
111.72951768192681
111.11513458099667
110.50025901982413
109.88370396274321
109.26302311193659
108.63459082936963
96.68425532631981
93.20506153622676
92.02964869295096
91.6637516975206
91.53232340151919
91.45234855497279
91.30118821587887
90.88093600045896
89.4516753113875
89.37560780141257
89.30046979403828
89.22598487314274
89.15199815806916
89.07855031149862
89.0057057775295
88.9335275170308
88.86206473491887
88.7913479161278
120.65914243323631
120.14915712451536
119.64334052043793
119.14154639937665
118.64353644926078
118.14898071712462
117.65745015016839
117.16840395101917
116.68117610790836
116.19496871919867
115.70887133597896
115.2219641659878
114.73359461103482
114.24369967922588
113.63548507362985
113.02800245492213
112.4212403371695
111.81509399365493
111.20932791541233
110.60352297444435
109.99694730358317
109.3884095525308
108.77060997111737
96.55480660439886
93.27566177786227
92.09638723639874
91.74559281914775
91.61513364131423
91.53812970764132
91.38672007151338
90.9904415980043
89.52835482945626
89.45247066319368
89.37782664622779
89.30329473176948
89.22909517946114
89.15537062747445
89.08224829960123
89.00982842242314
88.93818202696855
88.86735101820264
120.69013407712423
120.18020468516825
119.67451117806911
119.17292429671664
118.67522975509546
118.18112860282046
117.69023360747077
117.20206378874113
116.7160427488167
116.23151199360701
115.74778045218044
115.2642385747727
114.78052814516188
114.29663175288319
113.69666671780529
113.09754479424805
112.4992564016871
111.90176438205201
111.30500665108832
110.70891708068855
110.11348120538638
109.51885633076655
95.133786207031
95.133786207031
95.133786207031
95.133786207031
95.133786207031
95.133786207031
95.133786207031
95.133786207031
95.133786207031
95.133786207031
89.53101253285293
89.45649903489696
89.3817719029349
89.30720627577492
89.23307433210302
89.15957215679524
89.08683835102426
89.01496518239983
88.9440052522595
121.29466872854456
120.78642111324056
120.28484639067202
119.79002351433941
119.30208785117307
118.82124416072358
118.34778726328975
117.88213171321895
117.4248517589569
116.97673228794521
116.53882945722776
116.1125378723961
115.69967071947188
115.30259507531655
114.8227190799555
114.34674046314564
113.87529498771946
113.40905995220376
112.94876213524623
112.49518171003845
112.04914767151192
111.6115165793139
95.133786207031
95.133786207031
95.133786207031
95.133786207031
95.133786207031
95.133786207031
95.133786207031
95.133786207031
95.133786207031
95.133786207031
91.02737900186315
90.91544259418328
90.80961858729407
90.7095525003287
90.6149652219668
90.52564074311073
90.44141732428795
90.36218167885391
90.28786523907237
121.84374355187633
121.33660607789533
120.83744934131252
120.34632690308362
119.86332279759213
119.38854944355431
118.92214336285453
118.46425743978722
118.01504790251117
117.57465359588323
117.14316463057959
116.72057670003977
116.3067230883303
115.90116373164676
115.40373416341328
114.90793159407323
114.41353924375893
113.92031218111516
113.42796937127271
112.93618612266198
112.44458800831845
111.95274839464467
95.133786207031
95.133786207031
95.133786207031
95.133786207031
95.133786207031
95.133786207031
95.133786207031
95.133786207031
95.133786207031
95.133786207031
91.43824516509284
91.35215199177601
91.26748668436248
91.1844354422755
91.10314402716439
91.02372405276364
90.94625765367859
90.87080074685959
90.79738520613502
122.27776274936087
121.77093446680902
121.27197451208566
120.78089018890668
120.2976881227658
119.82237255768791
119.35494323024052
118.8953931356146
118.44370675388664
117.99985968191466
117.56382112076581
117.135561487772
116.71506954630456
116.30238859909376
115.79624925017262
115.29203754293931
114.78980397460008
114.28961019185886
113.79153295507162
113.2956683420385
112.80213598956807
112.31108288183339
95.133786207031
95.133786207031
95.133786207031
95.133786207031
95.133786207031
95.133786207031
95.133786207031
95.133786207031
95.133786207031
95.133786207031
91.5894698172861
91.50302384652494
91.41855555643507
91.33600568577214
91.25532910921042
91.17649195770841
91.0994694662125
91.02424444310924
90.95080624127252
122.59294557112953
122.08619430594563
121.58694386150617
121.09519623031166
120.61095073552465
120.13420422983828
119.6649514080516
119.20318524508295
118.74889751719103
118.30207925430359
117.86272078240088
117.4308106604314
117.00633195979215
116.58925234216194
116.07728054061867
115.56710080135008
115.05869500944111
114.55204110597883
114.04711152578645
113.54387143748404
113.04227679958262
112.54227232128173
95.133786207031
95.133786207031
95.133786207031
95.133786207031
95.133786207031
95.133786207031
95.133786207031
95.133786207031
95.133786207031
95.133786207031
91.63554685710741
91.55104890710565
91.4680984938943
91.3867155001437
91.30691438378166
91.22870533063514
91.15209511091136
91.0770876882178
91.0036846278724
122.80470217940349
122.2979906573188
121.79851045466486
121.3062639322718
120.82125103871886
120.34346927917045
119.87291365124618
119.40957652882358
118.95344748048707
118.50451303049125
118.06275641847868
117.62815752459045
117.20069341541029
116.78034066784012
116.26413028535963
115.74969496509027
115.2370339070466
114.7261474814312
114.2170377804002
113.70970926964159
113.20416955226455
112.70043023963102
95.133786207031
95.133786207031
95.133786207031
95.133786207031
95.133786207031
95.133786207031
95.133786207031
95.133786207031
95.133786207031
95.133786207031
91.6513182795999
91.5669694540913
91.4842004277836
91.403004113203
91.32337505654449
91.24530900463034
91.16880258645327
91.09385308820946
91.0204583035705
122.92644313084755
122.41975290829116
121.92013586157248
121.42759427234732
120.94212805634264
120.463734762944
119.99240958231151
119.52814536808896
119.07093268545884
118.62075989311089
118.17761325931276
117.74147708377988
117.31233370665868
116.89016304288305
116.37160135162262
115.85479454703442
115.33973837231044
114.82642813244357
114.3148585002092
113.80502327634537
113.29691509357482
112.79052505780922
95.133786207031
95.133786207031
95.133786207031
95.133786207031
95.133786207031
95.133786207031
95.133786207031
95.133786207031
95.133786207031
95.133786207031
91.65617410565793
91.57198768648713
91.48934371518234
91.40824285461437
91.3286851288631
91.25067008743721
91.17419692416105
91.09926456012708
91.02587169829488
122.96614783837217
122.45946433639833
121.95980201078616
121.46716320891592
120.9815479932709
120.50295415027148
120.03137720073535
119.56681040801469
119.10924477787205
118.65866904266689
118.21506962364552
117.77843057631875
117.34873356909445
116.92595807979085
116.40661159650864
115.88901452834479
115.37316376015013
114.8590563348122
114.3466895645952
113.83606117275497
113.32716947370908
112.82001359895123
95.133786207031
95.133786207031
95.133786207031
95.133786207031
95.133786207031
95.133786207031
95.133786207031
95.133786207031
95.133786207031
95.133786207031
91.65731156733744
91.57313601925352
91.4905070067824
91.40942216416936
91.32987942500775
91.25187692294406
91.17541292059002
91.10048576038872
91.0270938325623
122.9264431308482
122.41975290829183
121.92013586157312
121.42759427234792
120.94212805634315
120.46373476294443
119.99240958231192
119.52814536808943
119.07093268545935
118.62075989311143
118.17761325931333
117.7414770837805
117.31233370665926
116.89016304288363
116.37160135162323
115.854794547035
115.33973837231102
114.82642813244412
114.31485850020975
113.8050232763459
113.29691509357538
112.79052505780983
95.133786207031
95.133786207031
95.133786207031
95.133786207031
95.133786207031
95.133786207031
95.133786207031
95.133786207031
95.133786207031
95.133786207031
91.65617410565869
91.57198768648794
91.48934371518317
91.40824285461521
91.32868512886395
91.2506700874381
91.17419692416196
91.09926456012799
91.02587169829579
122.80470217940459
122.2979906573199
121.79851045466594
121.30626393227288
120.82125103871992
120.34346927917152
119.87291365124722
119.40957652882454
118.953447480488
118.50451303049216
118.06275641847958
117.62815752459137
117.20069341541122
116.7803406678411
116.26413028536061
115.74969496509122
115.23703390704753
114.72614748143214
114.21703778040113
113.70970926964256
113.20416955226551
112.70043023963194
95.133786207031
95.133786207031
95.133786207031
95.133786207031
95.133786207031
95.133786207031
95.133786207031
95.133786207031
95.133786207031
95.133786207031
91.65131827960205
91.56696945409348
91.48420042778584
91.40300411320528
91.32337505654677
91.24530900463259
91.16880258645553
91.09385308821172
91.02045830357277
122.59294557113033
122.08619430594638
121.5869438615069
121.09519623031233
120.6109507355253
120.13420422983889
119.66495140805219
119.2031852450835
118.74889751719155
118.3020792543041
117.86272078240147
117.43081066043202
117.00633195979285
116.58925234216265
116.07728054061943
115.56710080135085
115.05869500944183
114.55204110597948
114.04711152578696
113.54387143748444
113.04227679958295
112.54227232128201
95.133786207031
95.133786207031
95.133786207031
95.133786207031
95.133786207031
95.133786207031
95.133786207031
95.133786207031
95.133786207031
95.133786207031
91.6355468571128
91.55104890711121
91.46809849389996
91.38671550014934
91.30691438378727
91.22870533064068
91.15209511091679
91.07708768822309
91.00368462787765
122.27776274936139
121.77093446680956
121.27197451208626
120.78089018890735
120.29768812276647
119.82237255768858
119.35494323024123
118.89539313561531
118.44370675388738
117.99985968191541
117.5638211207665
117.13556148777263
116.71506954630512
116.30238859909429
115.79624925017316
115.29203754293975
114.78980397460057
114.28961019185941
113.79153295507231
113.29566834203925
112.80213598956881
112.31108288183412
95.133786207031
95.133786207031
95.133786207031
95.133786207031
95.133786207031
95.133786207031
95.133786207031
95.133786207031
95.133786207031
95.133786207031
91.58946981729042
91.50302384652935
91.41855555643957
91.33600568577675
91.25532910921514
91.17649195771317
91.09946946621731
91.02424444311414
90.95080624127745
121.84374355187597
121.33660607789498
120.83744934131212
120.34632690308318
119.86332279759165
119.38854944355388
118.92214336285407
118.46425743978678
118.01504790251069
117.57465359588281
117.14316463057934
116.72057670003957
116.30672308833013
115.90116373164663
115.40373416341316
114.90793159407316
114.41353924375885
113.9203121811151
113.42796937127257
112.9361861226618
112.44458800831822
111.95274839464437
95.133786207031
95.133786207031
95.133786207031
95.133786207031
95.133786207031
95.133786207031
95.133786207031
95.133786207031
95.133786207031
95.133786207031
91.43824516509618
91.35215199177941
91.26748668436588
91.1844354422789
91.10314402716779
91.02372405276704
90.94625765368193
90.87080074686286
90.79738520613829
121.29466872854366
120.78642111323967
120.2848463906711
119.7900235143385
119.30208785117219
118.82124416072271
118.34778726328899
117.8821317132182
117.42485175895621
116.97673228794461
116.53882945722725
116.1125378723957
115.6996707194715
115.30259507531622
114.82271907995523
114.34674046314537
113.8752949877192
113.40905995220348
112.94876213524594
112.49518171003812
112.04914767151155
111.61151657931353
95.133786207031
95.133786207031
95.133786207031
95.133786207031
95.133786207031
95.133786207031
95.133786207031
95.133786207031
95.133786207031
95.133786207031
91.02737900186533
90.91544259418549
90.80961858729638
90.70955250033109
90.61496522196919
90.52564074311313
90.4414173242904
90.36218167885643
90.28786523907486
120.69013407712302
120.18020468516701
119.67451117806802
119.17292429671578
118.67522975509478
118.18112860281998
117.69023360747025
117.20206378874062
116.71604274881618
116.23151199360649
115.7477804521799
115.26423857477212
114.78052814516141
114.29663175288279
113.69666671780502
113.09754479424797
112.49925640168715
111.90176438205226
111.30500665108868
110.70891708068905
110.11348120538695
109.51885633076715
95.133786207031
95.133786207031
95.133786207031
95.133786207031
95.133786207031
95.133786207031
95.133786207031
95.133786207031
95.133786207031
95.133786207031
89.53101253285547
89.45649903489957
89.38177190293752
89.30720627577757
89.23307433210572
89.15957215679795
89.08683835102693
89.01496518240239
88.94400525226209
120.65914243323505
120.14915712451403
119.64334052043677
119.14154639937577
118.64353644926018
118.14898071712415
117.65745015016783
117.16840395101869
116.68117610790785
116.19496871919814
115.70887133597837
115.22196416598722
114.73359461103432
114.24369967922551
113.63548507362958
113.02800245492202
112.4212403371696
111.81509399365518
111.20932791541271
110.60352297444486
109.99694730358367
109.38840955253136
108.770609971118
96.55480660440111
93.27566177786217
92.09638723639861
91.7455928191492
91.61513364131483
91.53812970764223
91.38672007151425
90.99044159800326
89.5283548294587
89.4524706631962
89.37782664623033
89.30329473177204
89.22909517946371
89.15537062747705
89.08224829960376
89.00982842242568
88.9381820269711
88.86735101820517
120.628288381928
120.11825407164707
119.61233416856717
119.11036439402625
118.6120823259076
118.1171280660131
117.62503248477934
117.1351968874734
116.64686686841861
116.1591037721146
115.67076760440497
115.18059186413767
114.68756895316207
114.19160413562281
113.57508244231371
112.95923811239392
112.34409616157616
111.72951768192709
111.11513458099712
110.50025901982464
109.88370396274381
109.26302311193727
108.63459082937034
96.68425532632217
93.20506153622675
92.02964869295086
91.66375169752207
91.5323234015198
91.45234855497375
91.30118821587979
90.88093600045791
89.45167531138998
89.37560780141503
89.30046979404085
89.22598487314522
89.15199815807158
89.07855031150113
89.005705777532
88.93352751703324
88.86206473492138
88.7913479161303
120.59757746874074
120.08750212914272
119.58150123375215
119.07939053111949
118.5808834251864
118.08559173351101
117.5930089496723
117.10248195543501
116.61317184622946
116.12400259408706
115.63360139056402
115.14031064392837
114.64265105613548
114.1404739226043
113.51549861608488
112.89124473817208
112.26784291622214
111.64517754115445
111.02281714526364
110.39995018588823
109.77525859770333
109.14685218488464
108.5124044650824
96.78009644130178
93.13699384096029
91.9611535337316
91.58346751547194
91.45075929291535
91.36847539140408
91.21706678060501
90.7771044903198
89.37518915021889
89.2992465435442