# vtk DataFile Version 2.0
Niestacjonarne zagadnienie cieplne - ogrzewanie wody w garnku stalowym
ASCII
DATASET UNSTRUCTURED_GRID
POINTS 1353 float
0.0 0.0 0.0
0.0 0.0015384615384615385 0.0
0.0 0.003076923076923077 0.0
0.0 0.004615384615384615 0.0
0.0 0.006153846153846154 0.0
0.0 0.007692307692307693 0.0
0.0 0.00923076923076923 0.0
0.0 0.010769230769230769 0.0
0.0 0.012307692307692308 0.0
0.0 0.013846153846153847 0.0
0.0 0.015384615384615385 0.0
0.0 0.016923076923076923 0.0
0.0 0.01846153846153846 0.0
0.0 0.02 0.0
0.0 0.020555555555555556 0.0
0.0 0.021111111111111112 0.0
0.0 0.021666666666666667 0.0
0.0 0.022222222222222223 0.0
0.0 0.02277777777777778 0.0
0.0 0.023333333333333334 0.0
0.0 0.02388888888888889 0.0
0.0 0.024444444444444446 0.0
0.0 0.025 0.0
0.0 0.036111111111111115 0.0
0.0 0.04722222222222222 0.0
0.0 0.058333333333333334 0.0
0.0 0.06944444444444445 0.0
0.0 0.08055555555555556 0.0
0.0 0.09166666666666667 0.0
0.0 0.10277777777777777 0.0
0.0 0.1138888888888889 0.0
0.0 0.125 0.0
0.0 0.12555555555555556 0.0
0.0 0.12611111111111112 0.0
0.0 0.12666666666666668 0.0
0.0 0.1272222222222222 0.0
0.0 0.12777777777777777 0.0
0.0 0.12833333333333333 0.0
0.0 0.1288888888888889 0.0
0.0 0.12944444444444445 0.0
0.0 0.13 0.0
5.555555555555556E-4 0.0 0.0
5.555555555555556E-4 0.0015384615384615385 0.0
5.555555555555556E-4 0.003076923076923077 0.0
5.555555555555556E-4 0.004615384615384615 0.0
5.555555555555556E-4 0.006153846153846154 0.0
5.555555555555556E-4 0.007692307692307693 0.0
5.555555555555556E-4 0.00923076923076923 0.0
5.555555555555556E-4 0.010769230769230769 0.0
5.555555555555556E-4 0.012307692307692308 0.0
5.555555555555556E-4 0.013846153846153847 0.0
5.555555555555556E-4 0.015384615384615385 0.0
5.555555555555556E-4 0.016923076923076923 0.0
5.555555555555556E-4 0.01846153846153846 0.0
5.555555555555556E-4 0.02 0.0
5.555555555555556E-4 0.020555555555555556 0.0
5.555555555555556E-4 0.021111111111111112 0.0
5.555555555555556E-4 0.021666666666666667 0.0
5.555555555555556E-4 0.022222222222222223 0.0
5.555555555555556E-4 0.02277777777777778 0.0
5.555555555555556E-4 0.023333333333333334 0.0
5.555555555555556E-4 0.02388888888888889 0.0
5.555555555555556E-4 0.024444444444444446 0.0
5.555555555555556E-4 0.025 0.0
5.555555555555556E-4 0.036111111111111115 0.0
5.555555555555556E-4 0.04722222222222222 0.0
5.555555555555556E-4 0.058333333333333334 0.0
5.555555555555556E-4 0.06944444444444445 0.0
5.555555555555556E-4 0.08055555555555556 0.0
5.555555555555556E-4 0.09166666666666667 0.0
5.555555555555556E-4 0.10277777777777777 0.0
5.555555555555556E-4 0.1138888888888889 0.0
5.555555555555556E-4 0.125 0.0
5.555555555555556E-4 0.12555555555555556 0.0
5.555555555555556E-4 0.12611111111111112 0.0
5.555555555555556E-4 0.12666666666666668 0.0
5.555555555555556E-4 0.1272222222222222 0.0
5.555555555555556E-4 0.12777777777777777 0.0
5.555555555555556E-4 0.12833333333333333 0.0
5.555555555555556E-4 0.1288888888888889 0.0
5.555555555555556E-4 0.12944444444444445 0.0
5.555555555555556E-4 0.13 0.0
0.0011111111111111111 0.0 0.0
0.0011111111111111111 0.0015384615384615385 0.0
0.0011111111111111111 0.003076923076923077 0.0
0.0011111111111111111 0.004615384615384615 0.0
0.0011111111111111111 0.006153846153846154 0.0
0.0011111111111111111 0.007692307692307693 0.0
0.0011111111111111111 0.00923076923076923 0.0
0.0011111111111111111 0.010769230769230769 0.0
0.0011111111111111111 0.012307692307692308 0.0
0.0011111111111111111 0.013846153846153847 0.0
0.0011111111111111111 0.015384615384615385 0.0
0.0011111111111111111 0.016923076923076923 0.0
0.0011111111111111111 0.01846153846153846 0.0
0.0011111111111111111 0.02 0.0
0.0011111111111111111 0.020555555555555556 0.0
0.0011111111111111111 0.021111111111111112 0.0
0.0011111111111111111 0.021666666666666667 0.0
0.0011111111111111111 0.022222222222222223 0.0
0.0011111111111111111 0.02277777777777778 0.0
0.0011111111111111111 0.023333333333333334 0.0
0.0011111111111111111 0.02388888888888889 0.0
0.0011111111111111111 0.024444444444444446 0.0
0.0011111111111111111 0.025 0.0
0.0011111111111111111 0.036111111111111115 0.0
0.0011111111111111111 0.04722222222222222 0.0
0.0011111111111111111 0.058333333333333334 0.0
0.0011111111111111111 0.06944444444444445 0.0
0.0011111111111111111 0.08055555555555556 0.0
0.0011111111111111111 0.09166666666666667 0.0
0.0011111111111111111 0.10277777777777777 0.0
0.0011111111111111111 0.1138888888888889 0.0
0.0011111111111111111 0.125 0.0
0.0011111111111111111 0.12555555555555556 0.0
0.0011111111111111111 0.12611111111111112 0.0
0.0011111111111111111 0.12666666666666668 0.0
0.0011111111111111111 0.1272222222222222 0.0
0.0011111111111111111 0.12777777777777777 0.0
0.0011111111111111111 0.12833333333333333 0.0
0.0011111111111111111 0.1288888888888889 0.0
0.0011111111111111111 0.12944444444444445 0.0
0.0011111111111111111 0.13 0.0
0.0016666666666666666 0.0 0.0
0.0016666666666666666 0.0015384615384615385 0.0
0.0016666666666666666 0.003076923076923077 0.0
0.0016666666666666666 0.004615384615384615 0.0
0.0016666666666666666 0.006153846153846154 0.0
0.0016666666666666666 0.007692307692307693 0.0
0.0016666666666666666 0.00923076923076923 0.0
0.0016666666666666666 0.010769230769230769 0.0
0.0016666666666666666 0.012307692307692308 0.0
0.0016666666666666666 0.013846153846153847 0.0
0.0016666666666666666 0.015384615384615385 0.0
0.0016666666666666666 0.016923076923076923 0.0
0.0016666666666666666 0.01846153846153846 0.0
0.0016666666666666666 0.02 0.0
0.0016666666666666666 0.020555555555555556 0.0
0.0016666666666666666 0.021111111111111112 0.0
0.0016666666666666666 0.021666666666666667 0.0
0.0016666666666666666 0.022222222222222223 0.0
0.0016666666666666666 0.02277777777777778 0.0
0.0016666666666666666 0.023333333333333334 0.0
0.0016666666666666666 0.02388888888888889 0.0
0.0016666666666666666 0.024444444444444446 0.0
0.0016666666666666666 0.025 0.0
0.0016666666666666666 0.036111111111111115 0.0
0.0016666666666666666 0.04722222222222222 0.0
0.0016666666666666666 0.058333333333333334 0.0
0.0016666666666666666 0.06944444444444445 0.0
0.0016666666666666666 0.08055555555555556 0.0
0.0016666666666666666 0.09166666666666667 0.0
0.0016666666666666666 0.10277777777777777 0.0
0.0016666666666666666 0.1138888888888889 0.0
0.0016666666666666666 0.125 0.0
0.0016666666666666666 0.12555555555555556 0.0
0.0016666666666666666 0.12611111111111112 0.0
0.0016666666666666666 0.12666666666666668 0.0
0.0016666666666666666 0.1272222222222222 0.0
0.0016666666666666666 0.12777777777777777 0.0
0.0016666666666666666 0.12833333333333333 0.0
0.0016666666666666666 0.1288888888888889 0.0
0.0016666666666666666 0.12944444444444445 0.0
0.0016666666666666666 0.13 0.0
0.0022222222222222222 0.0 0.0
0.0022222222222222222 0.0015384615384615385 0.0
0.0022222222222222222 0.003076923076923077 0.0
0.0022222222222222222 0.004615384615384615 0.0
0.0022222222222222222 0.006153846153846154 0.0
0.0022222222222222222 0.007692307692307693 0.0
0.0022222222222222222 0.00923076923076923 0.0
0.0022222222222222222 0.010769230769230769 0.0
0.0022222222222222222 0.012307692307692308 0.0
0.0022222222222222222 0.013846153846153847 0.0
0.0022222222222222222 0.015384615384615385 0.0
0.0022222222222222222 0.016923076923076923 0.0
0.0022222222222222222 0.01846153846153846 0.0
0.0022222222222222222 0.02 0.0
0.0022222222222222222 0.020555555555555556 0.0
0.0022222222222222222 0.021111111111111112 0.0
0.0022222222222222222 0.021666666666666667 0.0
0.0022222222222222222 0.022222222222222223 0.0
0.0022222222222222222 0.02277777777777778 0.0
0.0022222222222222222 0.023333333333333334 0.0
0.0022222222222222222 0.02388888888888889 0.0
0.0022222222222222222 0.024444444444444446 0.0
0.0022222222222222222 0.025 0.0
0.0022222222222222222 0.036111111111111115 0.0
0.0022222222222222222 0.04722222222222222 0.0
0.0022222222222222222 0.058333333333333334 0.0
0.0022222222222222222 0.06944444444444445 0.0
0.0022222222222222222 0.08055555555555556 0.0
0.0022222222222222222 0.09166666666666667 0.0
0.0022222222222222222 0.10277777777777777 0.0
0.0022222222222222222 0.1138888888888889 0.0
0.0022222222222222222 0.125 0.0
0.0022222222222222222 0.12555555555555556 0.0
0.0022222222222222222 0.12611111111111112 0.0
0.0022222222222222222 0.12666666666666668 0.0
0.0022222222222222222 0.1272222222222222 0.0
0.0022222222222222222 0.12777777777777777 0.0
0.0022222222222222222 0.12833333333333333 0.0
0.0022222222222222222 0.1288888888888889 0.0
0.0022222222222222222 0.12944444444444445 0.0
0.0022222222222222222 0.13 0.0
0.002777777777777778 0.0 0.0
0.002777777777777778 0.0015384615384615385 0.0
0.002777777777777778 0.003076923076923077 0.0
0.002777777777777778 0.004615384615384615 0.0
0.002777777777777778 0.006153846153846154 0.0
0.002777777777777778 0.007692307692307693 0.0
0.002777777777777778 0.00923076923076923 0.0
0.002777777777777778 0.010769230769230769 0.0
0.002777777777777778 0.012307692307692308 0.0
0.002777777777777778 0.013846153846153847 0.0
0.002777777777777778 0.015384615384615385 0.0
0.002777777777777778 0.016923076923076923 0.0
0.002777777777777778 0.01846153846153846 0.0
0.002777777777777778 0.02 0.0
0.002777777777777778 0.020555555555555556 0.0
0.002777777777777778 0.021111111111111112 0.0
0.002777777777777778 0.021666666666666667 0.0
0.002777777777777778 0.022222222222222223 0.0
0.002777777777777778 0.02277777777777778 0.0
0.002777777777777778 0.023333333333333334 0.0
0.002777777777777778 0.02388888888888889 0.0
0.002777777777777778 0.024444444444444446 0.0
0.002777777777777778 0.025 0.0
0.002777777777777778 0.036111111111111115 0.0
0.002777777777777778 0.04722222222222222 0.0
0.002777777777777778 0.058333333333333334 0.0
0.002777777777777778 0.06944444444444445 0.0
0.002777777777777778 0.08055555555555556 0.0
0.002777777777777778 0.09166666666666667 0.0
0.002777777777777778 0.10277777777777777 0.0
0.002777777777777778 0.1138888888888889 0.0
0.002777777777777778 0.125 0.0
0.002777777777777778 0.12555555555555556 0.0
0.002777777777777778 0.12611111111111112 0.0
[...]
POINT_DATA 1353
SCALARS Temperatura float 1
LOOKUP_TABLE default
126.84689907205885
126.34208268893852
125.84112858914489
125.34363221085033
124.84919978851529
124.3573355578552
123.86739452584817
123.37851959217316
122.88955442738732
122.39887130908417
121.90418987422176
121.40152421883545
120.88608751802882
120.32878161722952
119.59172388420143
118.90879042544944
118.24272167786839
117.58716987050067
116.93824628159935
116.29349663353182
115.65117208654951
115.01000740368772
114.36914193342483
103.23476530050559
99.19826427364514
98.00956231478034
97.60618912479586
97.46753782802203
97.37657648796967
97.21186360405711
96.68622241896189
95.25623132565349
95.17576199666168
95.09567525135422
95.01602917979058
94.93686322440125
94.85820396072901
94.7800694891119
94.7024722493224
94.62542049336736
94.54891886361082
126.87872967313673
126.37381088227943
125.87272816851655
125.3751094760107
124.88056175629919
124.38859274832197
123.8985606994068
123.40961500696592
122.92060337334439
122.42993593972612
121.93526315290183
121.43315059098539
120.91673722646247
120.37135706762545
119.68161066881527
119.00282403065745
118.33907151167442
117.68453129236536
117.03609969995699
116.39153583998463
115.7491780055666
115.10778768917214
114.46650495992286
103.30769568774869
99.27809019682358
98.08910629691857
97.68601462206102
97.54741896552494
97.45650741550257
97.29176556412311
96.76702817060367
95.3337297343689
95.25313691632316
95.17293969512099
95.09319278105677
95.01393264057536
94.9351836563464
94.85696259226984
94.77928125101177
94.70214768666308
94.62556653417701
126.91065398033697
126.40569260288072
125.90452670906855
125.40683572367615
124.91223631187992
124.42024511670284
123.93023155679994
123.4413609655309
122.95251017255289
122.46212874872596
121.96799060469897
121.46679897879426
120.9524155864135
120.41879881535982
119.74964034273847
119.08528839585112
118.42806286423927
117.77749993766209
117.13169418611886
116.48893883589258
115.84777607864223
115.20702454417595
114.56581167621943
103.356094249859
99.35569079549937
98.16818694926053
97.76679599696234
97.62864029913493
97.53807030627604
97.37356477064998
96.85264519812118
95.41231129915136
95.331516016966
95.25115477945357
95.17127133158212
95.09189274337427
95.01303672721181
94.9347162101125
94.85694135992192
94.77971989058888
94.70305657954604
126.94270083826382
126.437728347935
125.93652284625942
125.43880846407502
124.94421982772637
124.45228776344548
123.96239981443448
123.47374831590932
122.98525408180615
122.49544191905572
122.00224780093527
121.5026224971472
120.99197403730815
120.46801724473337
119.81303478569512
119.1605138336692
118.51187008856631
117.86722394389817
117.22576549006418
116.5862777214202
115.94750282605042
115.30828236645743
114.66767210670429
103.37944588103335
99.43131880016782
98.24673571264833
97.84855909539355
97.71119492202185
97.62127698285767
97.45723128145902
96.94313617563276
95.49192750085987
95.41086214341854
95.33029509260558
95.25024920810782
95.17073456771837
95.091757773334
95.0133262303776
94.93544851488855
94.8581327239766
94.78138445731366
126.97488461521394
126.46992084118664
125.96871395260008
125.47102347374147
124.97650628138818
124.48471239908459
123.9950539400464
123.50675983581972
123.01880950735826
122.5298311749786
122.03794847975593
121.54052114866488
121.03432977358314
120.51859438390424
119.87497309996652
119.23277682172804
118.59278826142302
117.95513013572916
117.3193037532598
116.68437842835189
116.04918520200401
115.41248259227119
114.77312729783353
103.37689185559353
99.50540694965754
98.32463390762857
97.93134828766777
97.79506950587566
97.7061468439971
97.54271259789404
97.03860442055968
95.57249295509676
95.49111247089736
95.41032027444625
95.33010368588698
95.25044627066254
95.17133977099994
95.09278649687879
95.01479565046371
94.93737801384543
94.86054154293483
127.00721221389847
126.50227150632826
126.00109643640705
125.50347473459853
125.00908729864967
124.51750758622242
124.02817798431605
123.54037224123806
123.05314138476831
122.56523619198894
122.07499778191713
121.580256546666
121.07880375859986
120.57041063871067
119.93675070336418
119.30401344429028
118.67259714277733
118.04250727814741
117.41331164884659
116.78416194342036
116.15384555906557
115.52087714604369
114.88369553045777
103.34720231654687
99.57858366547383
98.40170535676408
98.01522950416451
97.88024288425093
97.7927081212134
97.62993163926475
97.1391973002179
95.65387902080776
95.57217921050616
95.49118098396642
95.410812752243
95.33101961141091
95.25177796821676
95.17309029091838
95.09497265228755
95.0174429552407
94.94051404833806
127.03968588549539
126.53477960922392
126.03366544412461
125.53615448431965
125.04195223584519
124.55065890607142
124.06175195014129
123.57455675177714
123.0882060159722
122.60158659152751
122.11327800188783
121.62156848974765
121.12495500684956
120.6233841559611
119.99895588084387
119.37522657299957
118.7523685033673
118.13029565662791
117.50859281981647
116.88645311228564
116.26255527642333
115.63500140920374
115.00145538246885
103.28873215356597
99.65169689552857
98.47770533126017
98.10029477819475
97.96668392804966
97.8809997596678
97.71878368677567
97.24511159319592
95.73590298424476
95.65395332573782
95.57283320718744
95.4923704398127
95.4124609808993
95.33307437371374
95.2542311821641
95.17596530690462
95.09830819790922
95.02128086535976
127.07230453071293
126.56744217367262
126.06641462273247
125.56905324837679
125.07508829226809
124.58414917296967
124.09575221840662
123.6092796856538
123.12395292067276
122.6388033623976
122.15265632313451
121.66421382060456
121.17247080259749
120.67742139039987
120.0618506863647
119.44692108158576
118.83268711870022
118.21903207237297
117.60560140547332
116.99171261722708
116.37617728985497
115.75654732646042
115.12919252465011
103.19935212175365
99.72584879697979
98.55230487068584
98.18666866150228
98.0543485412812
97.97107408307298
97.80913196602089
97.35660176460229
95.81830969535899
95.73631955803718
95.65526755422533
95.57482343217883
95.49480256782198
95.41524021155834
95.33620158308013
95.25775232877156
95.17994432914013
95.10280992207444
127.10506440517237
126.60025411322047
126.09933601634216
125.60215987336935
125.10848064476464
124.61795868838578
124.13015199067154
123.64450325276695
123.16032643168668
122.67680090981055
122.1929939363821
121.70797334221406
121.22110646948441
120.73240957026228
120.12551451558312
119.51930616235221
118.91379366261839
118.30888829442942
117.7043647916647
117.09980818943711
116.49448502224173
115.88719301650693
115.27065704293601
103.0763411322445
99.80244575354365
98.62506893368914
98.27451707819971
98.14317553602528
98.06300041175228
97.90080162603492
97.47399165450099
95.900744497514
95.81909731646931
95.73869750391744
95.6582913206087
95.57810557093549
95.49829186926053
95.4189871357851
95.34029968934644
95.2623064490144
95.18505287763844
127.13795956783595
126.63320841622316
126.13242006257538
125.6354615808028
125.14211260007058
124.65206551738723
124.16492176160365
123.68018640857277
123.19726716288426
122.71548968517956
122.23415198845854
121.75264831428348
121.27065300022007
120.7882183380757
120.18991718205402
119.59240773149638
118.99569418964661
118.39975035445062
117.80452129369321
117.2099434695974
116.61599982314375
116.022839479689
101.85794676442772
101.85794676442772
101.85794676442772
101.85794676442772
101.85794676442772
101.85794676442772
101.85794676442772
101.85794676442772
101.85794676442772
101.85794676442772
95.90359359632197
95.82347971388437
95.74295726625097
95.66244275769434
95.58223694464714
95.50255591688453
95.42355214655441
95.34532704197153
95.2679384326936
127.77795163362352
127.27495554934943
126.77844955497828
126.28851544466836
125.8052937389287
125.3289971636132
124.85993205913775
124.39852906007258
123.94538431485978
123.50131182760467
123.06740528158389
122.64510562486637
122.236280764648
121.84336193665584
121.36873645979308
120.89800184766594
120.43180995839836
119.97085565969519
119.51588521164621
119.06770060475303
118.62715542804071
118.19513405731664
101.85794676442772
101.85794676442772
101.85794676442772
101.85794676442772
101.85794676442772
101.85794676442772
101.85794676442772
101.85794676442772
101.85794676442772
101.85794676442772
97.51348012310041
97.39348503281663
97.27985959058469
97.17222113742913
97.07026919258418
96.97377163431347
96.88255490256833
96.79649758175367
96.71552629546872
128.3575618366041
127.85571926042843
127.36171062156806
126.87559098877493
126.39744693112156
125.92739431907606
125.46557384750437
125.01214297018757
124.56726237583982
124.13107452839436
123.7036713478684
123.28504736621433
122.8750302843323
122.47316752525013
121.98019413553037
121.48877458638859
120.99868611915524
120.50967696738283
120.02145813264167
119.53369554037047
119.0460036370367
118.55794255871702
101.85794676442772
101.85794676442772
101.85794676442772
101.85794676442772
101.85794676442772
101.85794676442772
101.85794676442772
101.85794676442772
101.85794676442772
101.85794676442772
97.95619643913713
97.86393489906895
97.77301161382748
97.6836271311413
97.59593826683903
97.51006503767832
97.42609575964012
97.34409059523192
97.26408391294115
128.81535251651502
128.31383168663163
127.82001774129955
127.33391780000709
126.85553823121893
126.38488289561411
125.92195095529827
125.46673457680126
125.01921711576806
124.57937275479038
124.14716907129218
123.72257483155806
123.3055774853015
122.89622020099401
122.3940646203284
121.89376862890128
121.3953837673977
120.89897304589276
120.40461502954375
119.91240817938355
119.42247525324514
118.93496728007528
101.85794676442772
101.85794676442772
101.85794676442772
101.85794676442772
101.85794676442772
101.85794676442772
101.85794676442772
101.85794676442772
101.85794676442772
101.85794676442772
98.11908374176814
98.02646710828196
97.93577613111174
97.84694733583706
97.75993249816595
97.67469550371152
97.59121001484999
97.50945781611603
97.42942770364395
129.14781223571947
128.64637225664111
128.15225077774474
127.66544944015334
127.18596708522402
126.71379995964296
126.2489420372606
125.79138546879233
125.34112111486294
124.89813900564891
124.46242837924898
124.03397659307035
123.61276532577827
123.19876042509695
122.69044634761578
122.18385129123925
121.67895646351876
121.17573901841119
120.6741704485222
120.17421477170255
119.67582652257965
119.17894863504009
101.85794676442772
101.85794676442772
101.85794676442772
101.85794676442772
101.85794676442772
101.85794676442772
101.85794676442772
101.85794676442772
101.85794676442772
101.85794676442772
98.16876202922234
98.07823904546137
97.98917967948982
97.90160547232205
97.81553212516467
97.73097074969137
97.64792879315017
97.56641069483695
97.48641832568657
129.37121777523484
128.86981968151753
128.3754556705493
127.88812776554742
127.40783546012791
126.93457568612544
126.46834274754586
126.00912820123575
125.55692067093274
125.11170560302841
124.6734650213923
124.24217745029291
123.81781846981076
123.40036309210494
122.88758053605211
122.37649845523802
121.86711582264401
121.35943281351312
120.85345137271014
120.3491758853384
119.84661396443656
119.34577735169847
101.85794676442772
101.85794676442772
101.85794676442772
101.85794676442772
101.85794676442772
101.85794676442772
101.85794676442772
101.85794676442772
101.85794676442772
101.85794676442772
98.18576722385433
98.09540664515646
98.00654396618066
97.91917176677782
97.83328438678254
97.74887745775867
97.66594755973973
97.58449197912664
97.50450854770877
129.49967463366013
128.99829901419605
128.50379061114626
128.01615136981877
127.53538075841165
127.06147576778984
126.59443091909762
126.13423828745076
125.68088755164867
125.23436607862057
124.79465904286705
124.36174955237605
123.93561866015376
123.51624489025255
123.0009810049562
122.48739631790002
121.97548627774518
121.46524588378638
120.95666948662954
120.44975054161557
119.94448130405947
119.4408524590201
101.85794676442772
101.85794676442772
101.85794676442772
101.85794676442772
101.85794676442772
101.85794676442772
101.85794676442772
101.85794676442772
101.85794676442772
101.85794676442772
98.19100633943305
98.10082057281312
98.01209256389039
97.92482320880342
97.83901271942442
97.7546608005594
97.67176677791038
97.59032968724215
97.51034833302397
129.5415729583378
129.04020443545937
128.5456482659891
128.05790646434875
127.57697865294506
127.10286207140196
126.63555158753559
126.17503970603063
125.72131656875553
125.27436993913679
124.83418516420501
124.4007451191819
123.97403018559564
123.55401845219346
123.03792680418655
122.52350853915371
122.01076027752676
121.49967880233761
120.99026117359644
120.48250487386858
119.97640799370494
119.47196946454214
101.85794676442772
101.85794676442772
101.85794676442772
101.85794676442772
101.85794676442772
101.85794676442772
101.85794676442772
101.85794676442772
101.85794676442772
101.85794676442772
98.19223365182965
98.10205974127805
98.01334794431308
97.92609590715259
97.84030160022131
97.75596321111863
97.67307906815431
97.59164758755873
97.51166723906924
129.49967463366093
128.99829901419685
128.50379061114697
128.01615136981943
127.53538075841222
127.06147576779031
126.5944309190981
126.13423828745131
125.68088755164928
125.2343660786212
124.79465904286772
124.36174955237674
123.93561866015447
123.51624489025326
123.00098100495693
122.4873963179007
121.97548627774584
121.46524588378699
120.95666948663013
120.44975054161614
119.94448130406002
119.44085245902072
101.85794676442772
101.85794676442772
101.85794676442772
101.85794676442772
101.85794676442772
101.85794676442772
101.85794676442772
101.85794676442772
101.85794676442772
101.85794676442772
98.19100633943394
98.10082057281406
98.01209256389136
97.9248232088044
97.83901271942543
97.75466080056046
97.67176677791142
97.59032968724318
97.51034833302501
129.37121777523598
128.86981968151866
128.37545567055042
127.88812776554855
127.40783546012904
126.93457568612654
126.4683427475469
126.00912820123678
125.55692067093376
125.11170560302942
124.67346502139331
124.242177450294
123.81781846981184
123.40036309210605
122.88758053605319
122.37649845523907
121.86711582264505
121.35943281351415
120.8534513727112
120.34917588533949
119.84661396443768
119.34577735169955
101.85794676442772
101.85794676442772
101.85794676442772
101.85794676442772
101.85794676442772
101.85794676442772
101.85794676442772
101.85794676442772
101.85794676442772
101.85794676442772
98.18576722385664
98.09540664515879
98.00654396618303
97.91917176678027
97.83328438678498
97.74887745776108
97.66594755974218
97.5844919791291
97.50450854771121
129.14781223572035
128.64637225664194
128.15225077774548
127.66544944015402
127.1859670852247
126.7137999596436
126.24894203726122
125.79138546879288
125.34112111486345
124.89813900564947
124.46242837924966
124.03397659307107
123.61276532577908
123.19876042509776
122.69044634761663
122.1838512912401
121.67895646351961
121.17573901841197
120.67417044852283
120.17421477170305
119.6758265225801
119.1789486350405
101.85794676442772
101.85794676442772
101.85794676442772
101.85794676442772
101.85794676442772
101.85794676442772
101.85794676442772
101.85794676442772
101.85794676442772
101.85794676442772
98.16876202922806
98.07823904546727
97.9891796794958
97.90160547232803
97.8155321251706
97.73097074969724
97.6479287931559
97.56641069484253
97.48641832569214
128.8153525165155
128.31383168663217
127.82001774130018
127.33391780000777
126.85553823121965
126.38488289561484
125.92195095529901
125.46673457680198
125.01921711576883
124.57937275479117
124.14716907129292
123.72257483155876
123.30557748530215
122.89622020099468
122.39406462032906
121.89376862890185
121.39538376739827
120.89897304589343
120.40461502954456
119.91240817938441
119.42247525324599
118.93496728007612
101.85794676442772
101.85794676442772
101.85794676442772
101.85794676442772
101.85794676442772
101.85794676442772
101.85794676442772
101.85794676442772
101.85794676442772
101.85794676442772
98.11908374177267
98.02646710828658
97.93577613111646
97.8469473358419
97.7599324981709
97.67469550371652
97.59121001485508
97.50945781612118
97.42942770364913
128.35756183660368
127.85571926042802
127.36171062156761
126.87559098877443
126.39744693112102
125.92739431907557
125.46557384750389
125.01214297018709
124.56726237583932
124.13107452839397
123.70367134786818
123.28504736621423
122.87503028433221
122.47316752525006
121.9801941355303
121.48877458638857
120.99868611915524
120.50967696738284
120.02145813264161
119.53369554037037
119.04600363703656
118.5579425587168
101.85794676442772
101.85794676442772
101.85794676442772
101.85794676442772
101.85794676442772
101.85794676442772
101.85794676442772
101.85794676442772
101.85794676442772
101.85794676442772
97.95619643914068
97.86393489907256
97.77301161383112
97.6836271311449
97.59593826684262
97.51006503768191
97.42609575964364
97.34409059523539
97.26408391294463
127.77795163362256
127.27495554934849
126.77844955497733
126.28851544466742
125.80529373892776
125.32899716361233
124.85993205913698
124.39852906007181
123.94538431485903
123.50131182760398
123.06740528158333
122.64510562486593
122.23628076464763
121.84336193665551
121.36873645979281
120.89800184766568
120.43180995839813
119.97085565969495
119.51588521164597
119.06770060475276
118.62715542804042
118.19513405731634
101.85794676442772
101.85794676442772
101.85794676442772
101.85794676442772
101.85794676442772
101.85794676442772
101.85794676442772
101.85794676442772
101.85794676442772
101.85794676442772
97.51348012310271
97.39348503281899
97.27985959058711
97.17222113743159
97.07026919258666
96.97377163431597
96.88255490257087
96.79649758175628
96.71552629547134
127.1379595678346
126.63320841622183
126.1324200625742
125.6354615808018
125.14211260006984
124.6520655173867
124.16492176160318
123.68018640857228
123.19726716288386
122.71548968517911
122.23415198845802
121.75264831428291
121.27065300021955
120.78821833807527
120.18991718205379
119.59240773149637
118.99569418964674
118.39975035445097
117.80452129369367
117.20994346959796
116.61599982314439
116.02283947968965
101.85794676442772
101.85794676442772
101.85794676442772
101.85794676442772
101.85794676442772
101.85794676442772
101.85794676442772
101.85794676442772
101.85794676442772
101.85794676442772
95.90359359632461
95.82347971388707
95.74295726625371
95.66244275769715
95.58223694465
95.50255591688743
95.42355214655727
95.34532704197433
95.2679384326964
127.10506440517102
126.60025411321907
126.09933601634103
125.60215987336844
125.10848064476397
124.61795868838536
124.13015199067102
123.64450325276653
123.16032643168623
122.67680090981004
122.19299393638154
121.70797334221344
121.22110646948381
120.73240957026188
120.12551451558289
119.51930616235218
118.91379366261862
118.30888829442978
117.70436479166523
117.09980818943771
116.49448502224234
115.8871930165076
115.27065704293676
103.07634113224698
99.8024457535435
98.62506893368865
98.2745170782014
98.14317553602595
98.06300041175322
97.90080162603583
97.47399165449968
95.90074449751654
95.81909731647187
95.73869750392006
95.65829132061143
95.57810557093828
95.49829186926334
95.41898713578784
95.34029968934921
95.26230644901716
95.18505287764113
127.07230453071143
126.56744217367132
126.06641462273133
125.56905324837594
125.07508829226748
124.5841491729692
124.09575221840606
123.6092796856534
123.12395292067237
122.63880336239707
122.15265632313393
121.66421382060396
121.17247080259689
120.67742139039949
120.06185068636451
119.44692108158578
118.83268711870046
118.21903207237332
117.60560140547388
116.99171261722772
116.37617728985563
115.7565473264612
115.12919252465089
103.19935212175616
99.72584879697973
98.55230487068545
98.18666866150402
98.0543485412819
97.97107408307396
97.80913196602187
97.35660176460097
95.81830969536156
95.73631955803978
95.65526755422795
95.57482343218152
95.49480256782468
95.41524021156106
95.33620158308287
95.25775232877423
95.17994432914278
95.10280992207714
127.03968588549385
126.53477960922255
126.03366544412346
125.5361544843189
125.04195223584456
124.55065890607095