# vtk DataFile Version 2.0
Niestacjonarne zagadnienie cieplne - ogrzewanie wody w garnku stalowym
ASCII
DATASET UNSTRUCTURED_GRID
POINTS 1353 float
0.0 0.0 0.0
0.0 0.0015384615384615385 0.0
0.0 0.003076923076923077 0.0
0.0 0.004615384615384615 0.0
0.0 0.006153846153846154 0.0
0.0 0.007692307692307693 0.0
0.0 0.00923076923076923 0.0
0.0 0.010769230769230769 0.0
0.0 0.012307692307692308 0.0
0.0 0.013846153846153847 0.0
0.0 0.015384615384615385 0.0
0.0 0.016923076923076923 0.0
0.0 0.01846153846153846 0.0
0.0 0.02 0.0
0.0 0.020555555555555556 0.0
0.0 0.021111111111111112 0.0
0.0 0.021666666666666667 0.0
0.0 0.022222222222222223 0.0
0.0 0.02277777777777778 0.0
0.0 0.023333333333333334 0.0
0.0 0.02388888888888889 0.0
0.0 0.024444444444444446 0.0
0.0 0.025 0.0
0.0 0.036111111111111115 0.0
0.0 0.04722222222222222 0.0
0.0 0.058333333333333334 0.0
0.0 0.06944444444444445 0.0
0.0 0.08055555555555556 0.0
0.0 0.09166666666666667 0.0
0.0 0.10277777777777777 0.0
0.0 0.1138888888888889 0.0
0.0 0.125 0.0
0.0 0.12555555555555556 0.0
0.0 0.12611111111111112 0.0
0.0 0.12666666666666668 0.0
0.0 0.1272222222222222 0.0
0.0 0.12777777777777777 0.0
0.0 0.12833333333333333 0.0
0.0 0.1288888888888889 0.0
0.0 0.12944444444444445 0.0
0.0 0.13 0.0
5.555555555555556E-4 0.0 0.0
5.555555555555556E-4 0.0015384615384615385 0.0
5.555555555555556E-4 0.003076923076923077 0.0
5.555555555555556E-4 0.004615384615384615 0.0
5.555555555555556E-4 0.006153846153846154 0.0
5.555555555555556E-4 0.007692307692307693 0.0
5.555555555555556E-4 0.00923076923076923 0.0
5.555555555555556E-4 0.010769230769230769 0.0
5.555555555555556E-4 0.012307692307692308 0.0
5.555555555555556E-4 0.013846153846153847 0.0
5.555555555555556E-4 0.015384615384615385 0.0
5.555555555555556E-4 0.016923076923076923 0.0
5.555555555555556E-4 0.01846153846153846 0.0
5.555555555555556E-4 0.02 0.0
5.555555555555556E-4 0.020555555555555556 0.0
5.555555555555556E-4 0.021111111111111112 0.0
5.555555555555556E-4 0.021666666666666667 0.0
5.555555555555556E-4 0.022222222222222223 0.0
5.555555555555556E-4 0.02277777777777778 0.0
5.555555555555556E-4 0.023333333333333334 0.0
5.555555555555556E-4 0.02388888888888889 0.0
5.555555555555556E-4 0.024444444444444446 0.0
5.555555555555556E-4 0.025 0.0
5.555555555555556E-4 0.036111111111111115 0.0
5.555555555555556E-4 0.04722222222222222 0.0
5.555555555555556E-4 0.058333333333333334 0.0
5.555555555555556E-4 0.06944444444444445 0.0
5.555555555555556E-4 0.08055555555555556 0.0
5.555555555555556E-4 0.09166666666666667 0.0
5.555555555555556E-4 0.10277777777777777 0.0
5.555555555555556E-4 0.1138888888888889 0.0
5.555555555555556E-4 0.125 0.0
5.555555555555556E-4 0.12555555555555556 0.0
5.555555555555556E-4 0.12611111111111112 0.0
5.555555555555556E-4 0.12666666666666668 0.0
5.555555555555556E-4 0.1272222222222222 0.0
5.555555555555556E-4 0.12777777777777777 0.0
5.555555555555556E-4 0.12833333333333333 0.0
5.555555555555556E-4 0.1288888888888889 0.0
5.555555555555556E-4 0.12944444444444445 0.0
5.555555555555556E-4 0.13 0.0
0.0011111111111111111 0.0 0.0
0.0011111111111111111 0.0015384615384615385 0.0
0.0011111111111111111 0.003076923076923077 0.0
0.0011111111111111111 0.004615384615384615 0.0
0.0011111111111111111 0.006153846153846154 0.0
0.0011111111111111111 0.007692307692307693 0.0
0.0011111111111111111 0.00923076923076923 0.0
0.0011111111111111111 0.010769230769230769 0.0
0.0011111111111111111 0.012307692307692308 0.0
0.0011111111111111111 0.013846153846153847 0.0
0.0011111111111111111 0.015384615384615385 0.0
0.0011111111111111111 0.016923076923076923 0.0
0.0011111111111111111 0.01846153846153846 0.0
0.0011111111111111111 0.02 0.0
0.0011111111111111111 0.020555555555555556 0.0
0.0011111111111111111 0.021111111111111112 0.0
0.0011111111111111111 0.021666666666666667 0.0
0.0011111111111111111 0.022222222222222223 0.0
0.0011111111111111111 0.02277777777777778 0.0
0.0011111111111111111 0.023333333333333334 0.0
0.0011111111111111111 0.02388888888888889 0.0
0.0011111111111111111 0.024444444444444446 0.0
0.0011111111111111111 0.025 0.0
0.0011111111111111111 0.036111111111111115 0.0
0.0011111111111111111 0.04722222222222222 0.0
0.0011111111111111111 0.058333333333333334 0.0
0.0011111111111111111 0.06944444444444445 0.0
0.0011111111111111111 0.08055555555555556 0.0
0.0011111111111111111 0.09166666666666667 0.0
0.0011111111111111111 0.10277777777777777 0.0
0.0011111111111111111 0.1138888888888889 0.0
0.0011111111111111111 0.125 0.0
0.0011111111111111111 0.12555555555555556 0.0
0.0011111111111111111 0.12611111111111112 0.0
0.0011111111111111111 0.12666666666666668 0.0
0.0011111111111111111 0.1272222222222222 0.0
0.0011111111111111111 0.12777777777777777 0.0
0.0011111111111111111 0.12833333333333333 0.0
0.0011111111111111111 0.1288888888888889 0.0
0.0011111111111111111 0.12944444444444445 0.0
0.0011111111111111111 0.13 0.0
0.0016666666666666666 0.0 0.0
0.0016666666666666666 0.0015384615384615385 0.0
0.0016666666666666666 0.003076923076923077 0.0
0.0016666666666666666 0.004615384615384615 0.0
0.0016666666666666666 0.006153846153846154 0.0
0.0016666666666666666 0.007692307692307693 0.0
0.0016666666666666666 0.00923076923076923 0.0
0.0016666666666666666 0.010769230769230769 0.0
0.0016666666666666666 0.012307692307692308 0.0
0.0016666666666666666 0.013846153846153847 0.0
0.0016666666666666666 0.015384615384615385 0.0
0.0016666666666666666 0.016923076923076923 0.0
0.0016666666666666666 0.01846153846153846 0.0
0.0016666666666666666 0.02 0.0
0.0016666666666666666 0.020555555555555556 0.0
0.0016666666666666666 0.021111111111111112 0.0
0.0016666666666666666 0.021666666666666667 0.0
0.0016666666666666666 0.022222222222222223 0.0
0.0016666666666666666 0.02277777777777778 0.0
0.0016666666666666666 0.023333333333333334 0.0
0.0016666666666666666 0.02388888888888889 0.0
0.0016666666666666666 0.024444444444444446 0.0
0.0016666666666666666 0.025 0.0
0.0016666666666666666 0.036111111111111115 0.0
0.0016666666666666666 0.04722222222222222 0.0
0.0016666666666666666 0.058333333333333334 0.0
0.0016666666666666666 0.06944444444444445 0.0
0.0016666666666666666 0.08055555555555556 0.0
0.0016666666666666666 0.09166666666666667 0.0
0.0016666666666666666 0.10277777777777777 0.0
0.0016666666666666666 0.1138888888888889 0.0
0.0016666666666666666 0.125 0.0
0.0016666666666666666 0.12555555555555556 0.0
0.0016666666666666666 0.12611111111111112 0.0
0.0016666666666666666 0.12666666666666668 0.0
0.0016666666666666666 0.1272222222222222 0.0
0.0016666666666666666 0.12777777777777777 0.0
0.0016666666666666666 0.12833333333333333 0.0
0.0016666666666666666 0.1288888888888889 0.0
0.0016666666666666666 0.12944444444444445 0.0
0.0016666666666666666 0.13 0.0
0.0022222222222222222 0.0 0.0
0.0022222222222222222 0.0015384615384615385 0.0
0.0022222222222222222 0.003076923076923077 0.0
0.0022222222222222222 0.004615384615384615 0.0
0.0022222222222222222 0.006153846153846154 0.0
0.0022222222222222222 0.007692307692307693 0.0
0.0022222222222222222 0.00923076923076923 0.0
0.0022222222222222222 0.010769230769230769 0.0
0.0022222222222222222 0.012307692307692308 0.0
0.0022222222222222222 0.013846153846153847 0.0
0.0022222222222222222 0.015384615384615385 0.0
0.0022222222222222222 0.016923076923076923 0.0
0.0022222222222222222 0.01846153846153846 0.0
0.0022222222222222222 0.02 0.0
0.0022222222222222222 0.020555555555555556 0.0
0.0022222222222222222 0.021111111111111112 0.0
0.0022222222222222222 0.021666666666666667 0.0
0.0022222222222222222 0.022222222222222223 0.0
0.0022222222222222222 0.02277777777777778 0.0
0.0022222222222222222 0.023333333333333334 0.0
0.0022222222222222222 0.02388888888888889 0.0
0.0022222222222222222 0.024444444444444446 0.0
0.0022222222222222222 0.025 0.0
0.0022222222222222222 0.036111111111111115 0.0
0.0022222222222222222 0.04722222222222222 0.0
0.0022222222222222222 0.058333333333333334 0.0
0.0022222222222222222 0.06944444444444445 0.0
0.0022222222222222222 0.08055555555555556 0.0
0.0022222222222222222 0.09166666666666667 0.0
0.0022222222222222222 0.10277777777777777 0.0
0.0022222222222222222 0.1138888888888889 0.0
0.0022222222222222222 0.125 0.0
0.0022222222222222222 0.12555555555555556 0.0
0.0022222222222222222 0.12611111111111112 0.0
0.0022222222222222222 0.12666666666666668 0.0
0.0022222222222222222 0.1272222222222222 0.0
0.0022222222222222222 0.12777777777777777 0.0
0.0022222222222222222 0.12833333333333333 0.0
0.0022222222222222222 0.1288888888888889 0.0
0.0022222222222222222 0.12944444444444445 0.0
0.0022222222222222222 0.13 0.0
0.002777777777777778 0.0 0.0
0.002777777777777778 0.0015384615384615385 0.0
0.002777777777777778 0.003076923076923077 0.0
0.002777777777777778 0.004615384615384615 0.0
0.002777777777777778 0.006153846153846154 0.0
0.002777777777777778 0.007692307692307693 0.0
0.002777777777777778 0.00923076923076923 0.0
0.002777777777777778 0.010769230769230769 0.0
0.002777777777777778 0.012307692307692308 0.0
0.002777777777777778 0.013846153846153847 0.0
0.002777777777777778 0.015384615384615385 0.0
0.002777777777777778 0.016923076923076923 0.0
0.002777777777777778 0.01846153846153846 0.0
0.002777777777777778 0.02 0.0
0.002777777777777778 0.020555555555555556 0.0
0.002777777777777778 0.021111111111111112 0.0
0.002777777777777778 0.021666666666666667 0.0
0.002777777777777778 0.022222222222222223 0.0
0.002777777777777778 0.02277777777777778 0.0
0.002777777777777778 0.023333333333333334 0.0
0.002777777777777778 0.02388888888888889 0.0
0.002777777777777778 0.024444444444444446 0.0
0.002777777777777778 0.025 0.0
0.002777777777777778 0.036111111111111115 0.0
0.002777777777777778 0.04722222222222222 0.0
0.002777777777777778 0.058333333333333334 0.0
0.002777777777777778 0.06944444444444445 0.0
0.002777777777777778 0.08055555555555556 0.0
0.002777777777777778 0.09166666666666667 0.0
0.002777777777777778 0.10277777777777777 0.0
0.002777777777777778 0.1138888888888889 0.0
0.002777777777777778 0.125 0.0
0.002777777777777778 0.12555555555555556 0.0
0.002777777777777778 0.12611111111111112 0.0
[...]
POINT_DATA 1353
SCALARS Temperatura float 1
LOOKUP_TABLE default
117.66030767396944
117.14812567611921
116.64022016846755
116.13619455960605
115.63566884149574
115.13816800088766
114.64307682637451
114.1495805967635
113.65658358984294
113.16254974749964
112.66533409736947
112.16122156846848
111.64574119413086
111.09232208316926
110.3643393645783
109.68557413324238
109.0221456181974
108.36824098085502
107.72028193787082
107.07599650250104
106.43376046397837
105.79240066075454
105.15112893390113
93.992848919053
89.94623920350092
88.75495408430088
88.35113760796925
88.21383010034279
88.12804630455342
87.97903116525563
87.50655587449482
86.22318821430889
86.15139121301057
86.08001355229189
86.00911806206976
85.93875040724546
85.86894373771761
85.79972222519716
85.73110332630182
85.66309895957681
85.59571595977904
117.68940456352075
117.17711780628704
116.66908112416775
116.16493039402346
115.66428625498575
115.16667707029916
114.6714906860361
114.17791842345797
113.68486840015026
113.19083917030194
112.69362328028305
112.19000669552878
111.67363609563245
111.13103991980611
110.44597979813251
109.77094477845175
109.1095840778442
108.4565619738278
107.80901191774484
107.16485393151744
106.52254048923021
105.8809197114642
105.23920088641049
94.05634572048872
90.0166628773955
88.82509253172431
88.42155845262822
88.2843059417784
88.19856855172159
88.04952681124932
87.57787042504351
86.29149248938445
86.21957960284544
86.14809771736162
86.07710696718301
86.00665063439793
85.9367601132409
85.86745851050595
85.79876278251525
85.73068470037411
85.66323110101236
117.71859598652763
117.20626397362352
116.69814057236654
116.1939130242815
115.69321146207096
115.19557278284448
114.70039536564072
114.20688544246464
113.71397813760079
113.22020855136633
112.72348233167631
112.2207117275234
111.7062011576251
111.17430470409822
110.50795360758063
109.84603973708981
109.19061998866167
108.54122229185391
107.89606508717655
107.25354829876814
106.6123022113878
105.97121756736053
105.32948202927824
94.0953433634929
90.08497722317821
88.89488219891432
88.49305243418586
88.35623529022338
88.27081836108394
88.12198917028243
87.6537841776231
86.36096629371933
86.28885530942362
86.2172096267881
86.14608058248577
86.07550389501668
86.00550558925765
85.93610569676092
85.86731988345399
85.79915967505076
85.73163204369847
117.74791091069399
117.23556480304364
116.72739729096476
116.22314013010238
115.7224410529764
115.22485052646006
114.7297840322297
114.23647305296423
113.74389358271803
113.25065027613512
112.75479759643304
112.2534747823852
111.74239249153666
111.21931427056668
110.56589790839087
109.91479079881752
109.26722875697932
108.62326840369333
107.98211844781633
107.34261542247444
106.70355875212226
106.06384342965276
105.4225731095718
94.10932728877013
90.15143546513144
88.96425452408359
88.56564551451879
88.42961162550398
88.34480686957592
88.19639141144333
87.73435395253289
86.4315676750617
86.35918544550984
86.28732583122506
86.21602334835245
86.145299993526
86.07517282546034
86.00565745044165
85.9367683041341
85.86851727773649
85.80091204573517
117.77736390803227
117.2650232297236
116.75684888802294
116.25260776906997
115.75196936198041
115.25450249743322
114.75964584448592
114.26666512839584
113.77459084970705
113.28212328042999
112.78748960886729
112.28820351811942
111.78122547799015
111.26568867921927
110.62269795285675
109.98107933661456
109.34149420529404
108.70399984935706
108.06808281144961
107.43282947070378
106.7971023611156
106.15969545904935
105.51950040162066
94.09743946805872
90.21647113989422
89.03309072983885
88.63938217533453
88.50442220784922
88.42055220776285
88.27268631273914
87.8196731770806
86.50322274637809
86.43051420819866
86.35840864848485
86.2869118434583
86.21602429819838
86.14575104352497
86.07610363011237
86.00709710587077
85.93874563388535
85.8710588568917
117.8069621637038
117.29464097038188
116.78649209803078
116.28231031123512
115.78178850696973
115.28451792183564
114.78996580317845
114.29743984514097
113.8060371989134
113.31457159223878
112.82147063498833
112.32467936491784
111.82208110954437
111.31331649809036
110.67952592659643
110.0466586290129
109.4150286463965
108.78458714865417
108.1548782190978
107.52505342053024
106.89391438808488
106.25999687395016
105.62176304082094
94.05845065160688
90.28071384016745
89.10121442502275
88.71432844948619
88.58064669494777
88.49808066131949
88.3508044551146
87.90987483699763
86.57582034212551
86.50276332911068
86.43041094374665
86.35872113259256
86.28766302729046
86.21722920315824
86.14743147568645
86.07829067539552
86.00982688969174
85.94205381162166
117.83670828744962
117.32441766267391
116.81632248057676
116.31224048443872
115.81188846297586
115.31488320947922
114.82072509105707
114.32877020280564
113.8381918073333
113.34792978642885
112.85663176058442
112.36266335159559
111.86455543995446
111.36211847558342
110.73690873170104
110.11243004261935
109.48879518866761
108.86587587788294
108.24323367633023
107.62005504336803
106.99502328177911
106.36625149878724
105.73141734591259
93.99071598217768
90.34501313807515
89.1683805270747
88.79057645544731
88.65825506905244
88.57742840680483
88.4306515077735
88.00513609584179
86.64920301155173
86.57583482352955
86.50328767312388
86.4314372747055
86.36021233735161
86.28959964460483
86.21962626452118
86.15032782947746
86.08173561622411
86.01387003647577
117.8666016113843
117.35435077740668
116.84633417828647
116.34238939999032
115.84225716445651
115.34558215196107
114.85190146536725
114.3606245733507
113.87100746226014
113.38212429310602
112.89284994020517
112.40193139414907
111.9083599656834
111.4120028377971
110.79507358447754
110.17883723615292
109.56330615429756
108.94833192426917
108.33354064426872
107.71824218756947
107.1012501108341
106.48011888727441
105.85122483499208
93.89210586674353
90.41047334900945
89.23425955604164
88.86825079809765
88.73720470829166
88.65864396359592
88.51210432892024
88.10568536351785
86.7231518258394
86.64962255305142
86.57701908394527
86.50508807451881
86.43368739113491
86.36286001599275
86.29267006079714
86.22317933549631
86.15443589833882
86.08646944014535
117.8966388915183
117.38443574617618
116.87651980820898
116.37274657862818
115.87288062852674
115.37659615739119
114.88346966696444
114.39296743184852
113.90443202497497
113.41707528000553
112.92999630584374
112.44228061455875
111.9532670621948
111.46285869558376
110.85407857695245
110.2460498530408
109.63875219317664
109.03207401154356
108.42577540943934
107.81943547469933
107.21232302514952
106.60325139183763
105.9849102729421
93.75989815182184
90.47850360208825
89.29841576623868
88.94751739681125
88.81743637098278
88.74179150224296
88.595005729764
88.21181202075915
86.79736482435464
86.72395049075597
86.65177321254599
86.57975881045867
86.50812473927796
86.43700979028436
86.36653703171751
86.29680322209276
86.22787686902382
86.15979835268709
117.92681475181017
117.41466614171848
116.90687045237117
116.40329999620113
115.90374309494001
115.40790450641619
114.91540185760263
114.4257601440516
113.938409781118
113.45269906545549
112.9679416043889
112.48352622331981
111.99908075457724
111.51455791566717
110.9138798001857
110.31406682714477
109.71510350876424
109.11694799159648
108.51953512626531
107.9227976745352
107.32672228244819
106.73146976135638
92.25203912672067
92.25203912672067
92.25203912672067
92.25203912672067
92.25203912672067
92.25203912672067
92.25203912672067
92.25203912672067
92.25203912672067
92.25203912672067
86.7999405021692
86.72782713904948
86.65558368280921
86.58356754442231
86.5120386551223
86.44118452636431
86.37113781469166
86.30198687031812
86.23378205394344
118.51615355771581
118.00565531437195
117.50190830696266
117.0049902715786
116.51503436650063
116.03224193719112
115.55690286681646
115.0894248182846
114.63037265444393
114.18051878431952
113.7409032824821
113.31290089370613
112.89830135236981
112.49944423901582
112.01731805108511
111.53909203332837
111.06539505068041
110.59689687211245
110.134315927185
109.67842303892861
109.23003666207848
108.79000143521718
92.25203912672067
92.25203912672067
92.25203912672067
92.25203912672067
92.25203912672067
92.25203912672067
92.25203912672067
92.25203912672067
92.25203912672067
92.25203912672067
88.24765612478413
88.1391733951552
88.03669281885419
87.93987199119574
87.84844095907896
87.76219061873661
87.68096429659417
87.60465218979958
87.53318779144708
119.05214195254892
118.54273526499783
118.041372228485
117.54810575777566
117.06301880097104
116.58622229748303
116.11785098079676
115.65805577687863
115.20699100224337
114.76479395073308
114.33155395760029
113.90726721405679
113.49176939692347
113.08462580511397
112.58528647150327
112.08760548998428
111.59136864300052
111.09633392848517
110.60222372448042
110.10871736064847
109.61544517849408
109.12198621448853
92.25203912672067
92.25203912672067
92.25203912672067
92.25203912672067
92.25203912672067
92.25203912672067
92.25203912672067
92.25203912672067
92.25203912672067
92.25203912672067
88.64487239281567
88.56142277228642
88.47943942191708
88.3991023919339
88.32055270653981
88.24389837821863
88.16921889244774
88.09656834667565
88.02597754560453
119.47597349847861
118.96687062176775
118.46570526210188
117.97248480215045
117.4872159775607
117.00990319664602
116.54054644216814
116.07913906445312
115.62566602546967
115.18010352818119
114.74242146949182
114.31259097431486
113.89060136900923
113.47649601384185
112.96864935856533
112.46275950997355
111.95887651807234
111.45706144527003
110.95739027844512
110.45995807402399
109.9648831312491
109.47231070083963
92.25203912672067
92.25203912672067
92.25203912672067
92.25203912672067
92.25203912672067
92.25203912672067
92.25203912672067
92.25203912672067
92.25203912672067
92.25203912672067
88.7910988285922
88.7072973945958
88.62549593713331
88.54563700058473
88.46767678773612
88.39158239182483
88.31732972174751
88.24490202467894
88.17428889209263
119.78375202760922
119.27472452538507
118.77327598041867
118.27940853579878
117.79312172117312
117.3144126489483
116.84327632289687
116.3797060711616
115.92369406240988
115.4752317550277
115.03430994122309
114.60091769488272
114.17503868427963
113.7566413484901
113.24310197208068
112.7313859609396
112.22147549051905
111.7133488392426
111.2069788457352
110.70233117179684
110.19936238616599
109.69801795888038
92.25203912672067
92.25203912672067
92.25203912672067
92.25203912672067
92.25203912672067
92.25203912672067
92.25203912672067
92.25203912672067
92.25203912672067
92.25203912672067
88.83563249581927
88.75371667094659
88.67338434769034
88.5946546980108
88.5175416470087
88.44205498372443
88.36820118820852
88.29598402020449
88.22540491405324
119.99051629876554
119.4815276215398
118.97985479280118
118.48550031806907
117.99846434090416
117.51874461218006
117.04633642677496
116.58123250871725
116.12342283151968
115.67289438137117
115.22963091895188
114.79361290548253
114.3648180446099
113.94322358382978
113.42554415281703
112.90967174948771
112.39560567115427
111.88334637157162
111.37289600601913
110.86425907471985
110.35744317652663
109.85245986694478
92.25203912672067
92.25203912672067
92.25203912672067
92.25203912672067
92.25203912672067
92.25203912672067
92.25203912672067
92.25203912672067
92.25203912672067
92.25203912672067
88.85087516541662
88.76910277343528
88.68894527998212
88.6103957401567
88.53344878859306
88.4581002215093
88.38434668888038
88.31218547681476
88.24161436264808
120.1093790400845
119.60041115893976
119.09860472096058
118.60396215194986
118.11648355942992
117.63616673214877
117.16300714698336
116.69699799122725
116.2381302099357
115.78639258683212
115.34177185893425
114.90425283668993
114.47381841186849
114.05044909548675
113.53047407805794
113.01228638482198
112.49588188519603
111.98125601518406
111.46840358563155
110.95731854530125
110.44799368865925
109.94042030197959
92.25203912672067
92.25203912672067
92.25203912672067
92.25203912672067
92.25203912672067
92.25203912672067
92.25203912672067
92.25203912672067
92.25203912672067
92.25203912672067
88.85556672658522
88.77395142426218
88.69391486512752
88.6154576120814
88.53857960872226
88.46328033800357
88.38955893723146
88.31741427835365
88.24684502082611
120.14814363763854
119.63918231593414
119.13733166513124
118.64259417530457
118.15497009753906
117.6744574525929
117.20105204113743
116.73474745166314
116.2755350601672
115.82340401425961
115.37834119555784
114.94033116540304
114.50935614371427
114.08539620361664
113.56465480994693
113.04569541621962
112.52851502060581
112.01311077735755
111.49948010684575
110.98762083547722
110.47753137361036
109.96921093847577
92.25203912672067
92.25203912672067
92.25203912672067
92.25203912672067
92.25203912672067
92.25203912672067
92.25203912672067
92.25203912672067
92.25203912672067
92.25203912672067
88.85666568129456
88.77506082792873
88.69503869058127
88.6165968983664
88.53973336909272
88.46444621328438
88.3907336653971
88.31859403625126
88.2480256819915
120.10937904008519
119.60041115894045
119.09860472096123
118.60396215195048
118.11648355943043
117.6361667321492
117.16300714698377
116.69699799122773
116.23813020993623
115.78639258683263
115.34177185893478
114.90425283669052
114.4738184118691
114.05044909548735
113.53047407805857
113.0122863848226
112.49588188519662
111.9812560151846
111.4684035856321
110.95731854530177
110.44799368865978
109.94042030198017
92.25203912672067
92.25203912672067
92.25203912672067
92.25203912672067
92.25203912672067
92.25203912672067
92.25203912672067
92.25203912672067
92.25203912672067
92.25203912672067
88.85556672658602
88.77395142426302
88.69391486512838
88.61545761208227
88.53857960872313
88.46328033800448
88.3895589372324
88.31741427835459
88.24684502082704
119.99051629876661
119.48152762154088
118.97985479280226
118.48550031807012
117.99846434090523
117.51874461218112
117.04633642677598
116.58123250871826
116.12342283152064
115.67289438137213
115.22963091895288
114.79361290548353
114.36481804461091
113.94322358383086
113.42554415281809
112.90967174948874
112.39560567115528
111.88334637157261
111.37289600602011
110.86425907472085
110.35744317652764
109.85245986694572
92.25203912672067
92.25203912672067
92.25203912672067
92.25203912672067
92.25203912672067
92.25203912672067
92.25203912672067
92.25203912672067
92.25203912672067
92.25203912672067
88.85087516541873
88.76910277343738
88.68894527998428
88.61039574015892
88.53344878859527
88.45810022151149
88.38434668888259
88.31218547681696
88.2416143626503
119.78375202760995
119.27472452538576
118.77327598041934
118.27940853579943
117.79312172117376
117.31441264894889
116.84327632289742
116.37970607116213
115.92369406241042
115.47523175502826
115.03430994122367
114.60091769488335
114.17503868428031
113.7566413484908
113.24310197208143
112.73138596094037
112.22147549051981
111.71334883924328
111.20697884573575
110.70233117179728
110.19936238616636
109.69801795888071
92.25203912672067
92.25203912672067
92.25203912672067
92.25203912672067
92.25203912672067
92.25203912672067
92.25203912672067
92.25203912672067
92.25203912672067
92.25203912672067
88.83563249582447
88.75371667095193
88.67338434769577
88.59465469801624
88.51754164701413
88.44205498372979
88.36820118821375
88.29598402020959
88.22540491405829
119.47597349847906
118.96687062176822
118.46570526210242
117.97248480215106
117.48721597756133
117.00990319664668
116.54054644216879
116.0791390644538
115.62566602547037
115.1801035281819
114.74242146949251
114.31259097431553
113.89060136900981
113.47649601384241
112.9686493585659
112.46275950997405
111.95887651807287
111.45706144527063
110.95739027844583
110.4599580740248
109.96488313124993
109.47231070084045
92.25203912672067
92.25203912672067
92.25203912672067
92.25203912672067
92.25203912672067
92.25203912672067
92.25203912672067
92.25203912672067
92.25203912672067
92.25203912672067
88.79109882859645
88.70729739460012
88.62549593713771
88.54563700058921
88.46767678774069
88.39158239182943
88.31732972175219
88.2449020246837
88.17428889209742
119.05214195254854
118.54273526499745
118.04137222848458
117.54810575777515
117.06301880097053
116.5862222974826
116.11785098079632
115.65805577687817
115.20699100224293
114.7647939507327
114.33155395760002
113.9072672140566
113.4917693969233
113.08462580511382
112.58528647150311
112.08760548998416
111.5913686430004
111.09633392848504
110.60222372448024
110.10871736064823
109.61544517849379
109.12198621448817
92.25203912672067
92.25203912672067
92.25203912672067
92.25203912672067
92.25203912672067
92.25203912672067
92.25203912672067
92.25203912672067
92.25203912672067
92.25203912672067
88.64487239281881
88.56142277228962
88.47943942192029
88.3991023919371
88.32055270654307
88.2438983782219
88.16921889245094
88.09656834667881
88.02597754560769
118.51615355771484
118.005655314371
117.50190830696172
117.00499027157771
116.51503436649973
116.03224193719026
115.55690286681565
115.08942481828379
114.63037265444315
114.1805187843188
113.74090328248153
113.31290089370566
112.89830135236937
112.49944423901545
112.01731805108481
111.5390920333281
111.06539505068015
110.59689687211215
110.1343159271847
109.67842303892829
109.23003666207812
108.7900014352168
92.25203912672067
92.25203912672067
92.25203912672067
92.25203912672067
92.25203912672067
92.25203912672067
92.25203912672067
92.25203912672067
92.25203912672067
92.25203912672067
88.24765612478622
88.13917339515733
88.0366928188564
87.939871991198
87.84844095908123
87.76219061873888
87.68096429659649
87.60465218980195
87.53318779144942
117.92681475180892
117.41466614171725
116.90687045237003
116.40329999620018
115.90374309493927
115.40790450641553
114.91540185760203
114.42576014405108
113.93840978111751
113.45269906545498
112.96794160438833
112.48352622331913
111.99908075457672
111.51455791566674
110.91387980018547
110.3140668271447
109.71510350876432
109.11694799159676
108.51953512626574
107.92279767453576
107.32672228244884
106.73146976135708
92.25203912672067
92.25203912672067
92.25203912672067
92.25203912672067
92.25203912672067
92.25203912672067
92.25203912672067
92.25203912672067
92.25203912672067
92.25203912672067
86.79994050217155
86.72782713905187
86.65558368281162
86.58356754442481
86.51203865512484
86.44118452636687
86.3711378146942
86.30198687032056
86.23378205394592
117.89663889151696
117.3844357461749
116.87651980820782
116.37274657862723
115.87288062852609
115.37659615739062
114.88346966696382
114.3929674318481
113.90443202497444
113.41707528000501
112.9299963058431
112.44228061455803
111.95326706219424
111.4628586955834
110.85407857695219
110.24604985304073
109.63875219317674
109.03207401154388
108.42577540943977
107.81943547469992
107.21232302515008
106.60325139183834
105.9849102729428
93.75989815182399
90.478503602088
89.29841576623853
88.94751739681274
88.81743637098334
88.7417915022437
88.59500572976468
88.21181202075796
86.7973648243569
86.72395049075827
86.65177321254835
86.57975881046106
86.50812473928039
86.43700979028681
86.36653703171999
86.29680322209522
86.22787686902622
86.15979835268949
117.86660161138302
117.35435077740536
116.84633417828525
116.34238939998934
115.8422571644559
115.3455821519605
114.85190146536668
114.36062457335022
113.87100746225963
113.38212429310549
112.8928499402046
112.4019313941484
111.90835996568282
111.41200283779675
110.79507358447735
110.17883723615283
109.5633061542977
108.94833192426947
108.33354064426919
107.71824218756997
107.10125011083474
106.4801188872751
105.85122483499289
93.89210586674567
90.41047334900931
89.23425955604155
88.86825079809915
88.73720470829227
88.65864396359673
88.512104328921
88.10568536351663
86.72315182584171
86.64962255305379
86.57701908394763
86.50508807452117
86.43368739113728
86.36286001599512
86.29267006079952
86.22317933549866
86.15443589834116
86.08646944014764
117.83670828744819
117.32441766267259
116.81632248057548
116.31224048443775
115.81188846297516
115.31488320947871
114.82072509105652
114.32877020280503
113.83819180733276
113.34792978642831
112.85663176058375
112.36266335159495
111.86455543995386
111.36211847558295
110.73690873170086
110.11243004261928