# vtk DataFile Version 2.0
Niestacjonarne zagadnienie cieplne - ogrzewanie wody w garnku stalowym
ASCII
DATASET UNSTRUCTURED_GRID
POINTS 1353 float
0.0 0.0 0.0
0.0 0.0015384615384615385 0.0
0.0 0.003076923076923077 0.0
0.0 0.004615384615384615 0.0
0.0 0.006153846153846154 0.0
0.0 0.007692307692307693 0.0
0.0 0.00923076923076923 0.0
0.0 0.010769230769230769 0.0
0.0 0.012307692307692308 0.0
0.0 0.013846153846153847 0.0
0.0 0.015384615384615385 0.0
0.0 0.016923076923076923 0.0
0.0 0.01846153846153846 0.0
0.0 0.02 0.0
0.0 0.020555555555555556 0.0
0.0 0.021111111111111112 0.0
0.0 0.021666666666666667 0.0
0.0 0.022222222222222223 0.0
0.0 0.02277777777777778 0.0
0.0 0.023333333333333334 0.0
0.0 0.02388888888888889 0.0
0.0 0.024444444444444446 0.0
0.0 0.025 0.0
0.0 0.036111111111111115 0.0
0.0 0.04722222222222222 0.0
0.0 0.058333333333333334 0.0
0.0 0.06944444444444445 0.0
0.0 0.08055555555555556 0.0
0.0 0.09166666666666667 0.0
0.0 0.10277777777777777 0.0
0.0 0.1138888888888889 0.0
0.0 0.125 0.0
0.0 0.12555555555555556 0.0
0.0 0.12611111111111112 0.0
0.0 0.12666666666666668 0.0
0.0 0.1272222222222222 0.0
0.0 0.12777777777777777 0.0
0.0 0.12833333333333333 0.0
0.0 0.1288888888888889 0.0
0.0 0.12944444444444445 0.0
0.0 0.13 0.0
5.555555555555556E-4 0.0 0.0
5.555555555555556E-4 0.0015384615384615385 0.0
5.555555555555556E-4 0.003076923076923077 0.0
5.555555555555556E-4 0.004615384615384615 0.0
5.555555555555556E-4 0.006153846153846154 0.0
5.555555555555556E-4 0.007692307692307693 0.0
5.555555555555556E-4 0.00923076923076923 0.0
5.555555555555556E-4 0.010769230769230769 0.0
5.555555555555556E-4 0.012307692307692308 0.0
5.555555555555556E-4 0.013846153846153847 0.0
5.555555555555556E-4 0.015384615384615385 0.0
5.555555555555556E-4 0.016923076923076923 0.0
5.555555555555556E-4 0.01846153846153846 0.0
5.555555555555556E-4 0.02 0.0
5.555555555555556E-4 0.020555555555555556 0.0
5.555555555555556E-4 0.021111111111111112 0.0
5.555555555555556E-4 0.021666666666666667 0.0
5.555555555555556E-4 0.022222222222222223 0.0
5.555555555555556E-4 0.02277777777777778 0.0
5.555555555555556E-4 0.023333333333333334 0.0
5.555555555555556E-4 0.02388888888888889 0.0
5.555555555555556E-4 0.024444444444444446 0.0
5.555555555555556E-4 0.025 0.0
5.555555555555556E-4 0.036111111111111115 0.0
5.555555555555556E-4 0.04722222222222222 0.0
5.555555555555556E-4 0.058333333333333334 0.0
5.555555555555556E-4 0.06944444444444445 0.0
5.555555555555556E-4 0.08055555555555556 0.0
5.555555555555556E-4 0.09166666666666667 0.0
5.555555555555556E-4 0.10277777777777777 0.0
5.555555555555556E-4 0.1138888888888889 0.0
5.555555555555556E-4 0.125 0.0
5.555555555555556E-4 0.12555555555555556 0.0
5.555555555555556E-4 0.12611111111111112 0.0
5.555555555555556E-4 0.12666666666666668 0.0
5.555555555555556E-4 0.1272222222222222 0.0
5.555555555555556E-4 0.12777777777777777 0.0
5.555555555555556E-4 0.12833333333333333 0.0
5.555555555555556E-4 0.1288888888888889 0.0
5.555555555555556E-4 0.12944444444444445 0.0
5.555555555555556E-4 0.13 0.0
0.0011111111111111111 0.0 0.0
0.0011111111111111111 0.0015384615384615385 0.0
0.0011111111111111111 0.003076923076923077 0.0
0.0011111111111111111 0.004615384615384615 0.0
0.0011111111111111111 0.006153846153846154 0.0
0.0011111111111111111 0.007692307692307693 0.0
0.0011111111111111111 0.00923076923076923 0.0
0.0011111111111111111 0.010769230769230769 0.0
0.0011111111111111111 0.012307692307692308 0.0
0.0011111111111111111 0.013846153846153847 0.0
0.0011111111111111111 0.015384615384615385 0.0
0.0011111111111111111 0.016923076923076923 0.0
0.0011111111111111111 0.01846153846153846 0.0
0.0011111111111111111 0.02 0.0
0.0011111111111111111 0.020555555555555556 0.0
0.0011111111111111111 0.021111111111111112 0.0
0.0011111111111111111 0.021666666666666667 0.0
0.0011111111111111111 0.022222222222222223 0.0
0.0011111111111111111 0.02277777777777778 0.0
0.0011111111111111111 0.023333333333333334 0.0
0.0011111111111111111 0.02388888888888889 0.0
0.0011111111111111111 0.024444444444444446 0.0
0.0011111111111111111 0.025 0.0
0.0011111111111111111 0.036111111111111115 0.0
0.0011111111111111111 0.04722222222222222 0.0
0.0011111111111111111 0.058333333333333334 0.0
0.0011111111111111111 0.06944444444444445 0.0
0.0011111111111111111 0.08055555555555556 0.0
0.0011111111111111111 0.09166666666666667 0.0
0.0011111111111111111 0.10277777777777777 0.0
0.0011111111111111111 0.1138888888888889 0.0
0.0011111111111111111 0.125 0.0
0.0011111111111111111 0.12555555555555556 0.0
0.0011111111111111111 0.12611111111111112 0.0
0.0011111111111111111 0.12666666666666668 0.0
0.0011111111111111111 0.1272222222222222 0.0
0.0011111111111111111 0.12777777777777777 0.0
0.0011111111111111111 0.12833333333333333 0.0
0.0011111111111111111 0.1288888888888889 0.0
0.0011111111111111111 0.12944444444444445 0.0
0.0011111111111111111 0.13 0.0
0.0016666666666666666 0.0 0.0
0.0016666666666666666 0.0015384615384615385 0.0
0.0016666666666666666 0.003076923076923077 0.0
0.0016666666666666666 0.004615384615384615 0.0
0.0016666666666666666 0.006153846153846154 0.0
0.0016666666666666666 0.007692307692307693 0.0
0.0016666666666666666 0.00923076923076923 0.0
0.0016666666666666666 0.010769230769230769 0.0
0.0016666666666666666 0.012307692307692308 0.0
0.0016666666666666666 0.013846153846153847 0.0
0.0016666666666666666 0.015384615384615385 0.0
0.0016666666666666666 0.016923076923076923 0.0
0.0016666666666666666 0.01846153846153846 0.0
0.0016666666666666666 0.02 0.0
0.0016666666666666666 0.020555555555555556 0.0
0.0016666666666666666 0.021111111111111112 0.0
0.0016666666666666666 0.021666666666666667 0.0
0.0016666666666666666 0.022222222222222223 0.0
0.0016666666666666666 0.02277777777777778 0.0
0.0016666666666666666 0.023333333333333334 0.0
0.0016666666666666666 0.02388888888888889 0.0
0.0016666666666666666 0.024444444444444446 0.0
0.0016666666666666666 0.025 0.0
0.0016666666666666666 0.036111111111111115 0.0
0.0016666666666666666 0.04722222222222222 0.0
0.0016666666666666666 0.058333333333333334 0.0
0.0016666666666666666 0.06944444444444445 0.0
0.0016666666666666666 0.08055555555555556 0.0
0.0016666666666666666 0.09166666666666667 0.0
0.0016666666666666666 0.10277777777777777 0.0
0.0016666666666666666 0.1138888888888889 0.0
0.0016666666666666666 0.125 0.0
0.0016666666666666666 0.12555555555555556 0.0
0.0016666666666666666 0.12611111111111112 0.0
0.0016666666666666666 0.12666666666666668 0.0
0.0016666666666666666 0.1272222222222222 0.0
0.0016666666666666666 0.12777777777777777 0.0
0.0016666666666666666 0.12833333333333333 0.0
0.0016666666666666666 0.1288888888888889 0.0
0.0016666666666666666 0.12944444444444445 0.0
0.0016666666666666666 0.13 0.0
0.0022222222222222222 0.0 0.0
0.0022222222222222222 0.0015384615384615385 0.0
0.0022222222222222222 0.003076923076923077 0.0
0.0022222222222222222 0.004615384615384615 0.0
0.0022222222222222222 0.006153846153846154 0.0
0.0022222222222222222 0.007692307692307693 0.0
0.0022222222222222222 0.00923076923076923 0.0
0.0022222222222222222 0.010769230769230769 0.0
0.0022222222222222222 0.012307692307692308 0.0
0.0022222222222222222 0.013846153846153847 0.0
0.0022222222222222222 0.015384615384615385 0.0
0.0022222222222222222 0.016923076923076923 0.0
0.0022222222222222222 0.01846153846153846 0.0
0.0022222222222222222 0.02 0.0
0.0022222222222222222 0.020555555555555556 0.0
0.0022222222222222222 0.021111111111111112 0.0
0.0022222222222222222 0.021666666666666667 0.0
0.0022222222222222222 0.022222222222222223 0.0
0.0022222222222222222 0.02277777777777778 0.0
0.0022222222222222222 0.023333333333333334 0.0
0.0022222222222222222 0.02388888888888889 0.0
0.0022222222222222222 0.024444444444444446 0.0
0.0022222222222222222 0.025 0.0
0.0022222222222222222 0.036111111111111115 0.0
0.0022222222222222222 0.04722222222222222 0.0
0.0022222222222222222 0.058333333333333334 0.0
0.0022222222222222222 0.06944444444444445 0.0
0.0022222222222222222 0.08055555555555556 0.0
0.0022222222222222222 0.09166666666666667 0.0
0.0022222222222222222 0.10277777777777777 0.0
0.0022222222222222222 0.1138888888888889 0.0
0.0022222222222222222 0.125 0.0
0.0022222222222222222 0.12555555555555556 0.0
0.0022222222222222222 0.12611111111111112 0.0
0.0022222222222222222 0.12666666666666668 0.0
0.0022222222222222222 0.1272222222222222 0.0
0.0022222222222222222 0.12777777777777777 0.0
0.0022222222222222222 0.12833333333333333 0.0
0.0022222222222222222 0.1288888888888889 0.0
0.0022222222222222222 0.12944444444444445 0.0
0.0022222222222222222 0.13 0.0
0.002777777777777778 0.0 0.0
0.002777777777777778 0.0015384615384615385 0.0
0.002777777777777778 0.003076923076923077 0.0
0.002777777777777778 0.004615384615384615 0.0
0.002777777777777778 0.006153846153846154 0.0
0.002777777777777778 0.007692307692307693 0.0
0.002777777777777778 0.00923076923076923 0.0
0.002777777777777778 0.010769230769230769 0.0
0.002777777777777778 0.012307692307692308 0.0
0.002777777777777778 0.013846153846153847 0.0
0.002777777777777778 0.015384615384615385 0.0
0.002777777777777778 0.016923076923076923 0.0
0.002777777777777778 0.01846153846153846 0.0
0.002777777777777778 0.02 0.0
0.002777777777777778 0.020555555555555556 0.0
0.002777777777777778 0.021111111111111112 0.0
0.002777777777777778 0.021666666666666667 0.0
0.002777777777777778 0.022222222222222223 0.0
0.002777777777777778 0.02277777777777778 0.0
0.002777777777777778 0.023333333333333334 0.0
0.002777777777777778 0.02388888888888889 0.0
0.002777777777777778 0.024444444444444446 0.0
0.002777777777777778 0.025 0.0
0.002777777777777778 0.036111111111111115 0.0
0.002777777777777778 0.04722222222222222 0.0
0.002777777777777778 0.058333333333333334 0.0
0.002777777777777778 0.06944444444444445 0.0
0.002777777777777778 0.08055555555555556 0.0
0.002777777777777778 0.09166666666666667 0.0
0.002777777777777778 0.10277777777777777 0.0
0.002777777777777778 0.1138888888888889 0.0
0.002777777777777778 0.125 0.0
0.002777777777777778 0.12555555555555556 0.0
0.002777777777777778 0.12611111111111112 0.0
[...]
POINT_DATA 1353
SCALARS Temperatura float 1
LOOKUP_TABLE default
127.21391427162926
126.70939215353947
126.20871577073007
125.71148024294565
125.21729125501824
124.72565221363492
124.23591693596292
123.74722662858495
123.25842254072731
122.76787328788666
122.27329309800322
121.77068524701427
121.25525029111326
120.69778910856432
119.96036881810429
119.27726883387197
118.61109460601689
117.95547699240021
117.30651486889329
116.66174667512661
116.01941859227632
115.37826170485569
114.73741246517811
103.60399080354293
99.56789363191393
98.37929487374056
97.97593939370977
97.83723441101664
97.74606622195974
97.5807261945745
97.05296096906906
95.61711209603517
95.53629629728422
95.4558616137358
95.37586594608646
95.29634848817166
95.21733555288075
95.13884499799327
95.06088906285281
94.9834758529836
94.90660992316099
127.24585408771821
126.74122965584255
126.24042476135878
125.74306703150897
125.24876287099463
124.75701919479052
124.26719306771939
123.77843221228615
123.28958191717524
122.79904879136657
122.30447760460444
121.80242513026853
121.28601005734451
120.74051867519603
120.05058505420386
119.37164853458616
118.70780045976896
118.05319959010038
117.40473277941793
116.76015270445671
116.11779309667044
115.47641198763256
114.8351466810807
103.67729807371288
99.64809518608621
98.45921461812948
98.0561406179842
97.91749130123587
97.82637303741569
97.66100394802724
97.1341459054346
95.6949778212781
95.61403822969186
95.53349282050868
95.45339608732958
95.37378422430623
95.29468133398802
95.21610392686878
95.1380635997198
95.06056825813292
94.98362244908978
127.27788757687651
126.77322066503451
126.27233273189223
125.77490288993705
125.28054726630174
124.78878169483468
124.29897443718909
123.81028919277547
123.32160046231151
122.83135439965419
122.33731965239262
121.83619110862575
121.3218127972338
120.78812729756373
120.11885666708068
119.45440731629434
118.79710964164803
118.1465001629057
117.50066850129313
116.85790362038769
116.21674419242467
115.57600596623179
114.93481397971968
103.72607221368335
99.72606678156312
98.53866645633127
98.13729303524782
97.99908386065665
97.90830799681991
97.74317617266799
97.22015059027599
95.77392325187606
95.6927810217081
95.61207158745914
95.5318383907995
95.45210815623503
95.37289826405333
95.29422135743772
95.21608738457877
95.13850390714072
95.06147561487478
127.31004357879038
126.8053656732052
126.3044383120981
125.80698532168695
125.31264080470902
124.8209348027296
124.33125374277564
123.84278839607559
123.3544573720546
122.86478228763248
122.37169438227339
121.87213689611731
121.361505768437
120.8375138759916
120.18246884966662
119.5298914131001
118.88120445281248
118.23653091011025
117.59506013156333
116.95557297259036
116.31680933461477
115.67760864553192
115.03702475612475
103.74979809581755
99.80206112911249
98.61758182929309
98.21942248676062
98.0820051670015
97.99188295013185
97.8272128020192
97.31103793157867
95.8538996063331
95.7724873476521
95.69157242444037
95.6111772306953
95.53131136803808
95.4519810206034
95.37319326617965
95.29495644670756
95.21727850771823
95.14016496599245
127.34233645361793
126.83766739565222
126.33673886507685
125.8393100920643
125.34503744951428
124.85347020960364
124.36401942461082
123.87591255612958
123.38812698442392
122.89928805125933
122.40751526087689
121.91016218952203
121.40400224273625
120.88825891922045
120.24461244389786
119.60239308751758
118.96238840988813
118.32472374154186
117.68890098101008
117.05398876087095
116.41881686394066
115.78214239167282
115.14282064691581
103.7476169665749
99.87651093568952
98.69584206147447
98.30257333838533
98.16624186844753
98.07711734676676
97.91306112661557
97.40691164188569
95.93482104091818
95.85309410220823
95.7719548643347
95.69138991009903
95.6113821281855
95.53192272992608
95.45301365612379
95.37466387539864
95.2968840347667
95.21968202274807
127.37477309278603
126.87012724436136
126.36923078611399
125.87187116748615
125.37772880684166
124.88637645155252
124.39725549541782
123.90963833056884
123.42257414210054
122.93481119214154
122.44468714429702
121.95002781045113
121.44862078525581
120.94024250699916
120.30658779085779
119.6738557271148
119.04244796255563
118.41237214622778
117.78319702402507
117.15407428951663
116.52379077107696
115.89086027592062
115.25372069782648
103.7182989447031
99.95004457600854
98.7732709839766
98.38681151640752
98.25177276562424
98.16403949598231
98.00064375967565
97.5079196630743
96.01655821640975
95.93451311612422
95.85316947799319
95.7724545330929
95.69231241724879
95.6127188912539
95.53367604993308
95.4551997759802
95.37730788503895
95.30001319193113
127.40735573314748
126.90274447034314
126.40190920514819
125.90466076604334
125.41070420830793
124.91963907668521
124.43094191095808
123.94393686789294
123.45775503215845
122.97128113382479
122.48309197577913
121.99147270932927
121.49491893072432
120.99338268219928
120.36898562782021
119.74528625878168
119.12245922274293
118.5004201933868
117.87875488545365
117.2566566843709
116.63280415033351
116.0052989404432
115.37180437602797
103.6601989097637
100.0235099330922
98.84962388213822
98.47222905073593
98.33856668503375
98.25268845354856
98.08985556739096
97.61425955737668
96.09892740977305
96.01663491136077
95.93517229258337
95.85436545087197
95.77410903503973
95.69437189958343
95.61517434856272
95.53655021344754
95.45853095113227
95.38113759570817
127.44008325817555
126.93551607953819
126.43476774935759
125.93766938980248
125.44395082383572
124.95324086029729
124.46505499712872
123.97877440426944
123.49361904375627
123.00861864772577
122.52259654842328
122.03425296685039
121.54258299610107
121.04758582879741
120.43206940054995
119.81719200186039
119.20300986055312
118.58940751731848
117.97603120866727
117.3621987384912
116.7467216101297
116.12715162400791
115.49985831723141
103.57118763076839
100.09800907787414
98.92457181628393
98.55895049099139
98.42657947179264
98.34311669516616
98.18055923071682
97.72618683083759
96.18167202387819
96.09934386500191
96.01795433222661
95.93717010125202
95.85680485045916
95.77689352135708
95.69750137790348
95.61869421975256
95.5405240801157
95.46302340263502
127.47295190350037
126.96843696479571
126.46779843996417
125.9708858584306
125.47745379670152
124.98716205964558
124.49956789399272
124.01411305910071
123.53011036874432
123.04673790883633
122.56306165578906
122.0781487340282
121.59136762378637
121.10273909981622
120.4959193558086
119.88978372867851
119.28434254834458
118.67950800629286
118.07505542099183
117.4705700651552
116.86531838205622
116.25809747470045
115.64163361897666
103.44854406138501
100.17494828438811
98.99767977320079
98.64714176147574
98.51574986022618
98.43539374689787
98.27257919306281
97.84402670021213
96.26443529682096
96.18245920377503
96.10173089124225
96.02098944633897
95.94046204698515
95.86030081984109
95.78064323851008
95.70159808367812
95.62324261046267
95.54562248477185
127.50595570551164
127.00150009112487
126.50099168884473
126.00429736329623
125.51119639636615
125.02138069123362
124.53445102961538
124.04991169154873
123.56716947430145
123.08554913417937
122.60434806117063
122.12296071321954
121.64106328583101
121.15871204892377
120.56050585538087
119.96308843341001
119.36646477293468
118.77060929719251
118.17546748215602
117.58097593788584
116.98711745734093
116.39404069900857
102.2417141505167
102.2417141505167
102.2417141505167
102.2417141505167
102.2417141505167
102.2417141505167
102.2417141505167
102.2417141505167
102.2417141505167
102.2417141505167
96.26729531912122
96.18686180646642
96.10600860332593
96.02515457481962
95.94460210839524
95.86456843556566
95.78520682013563
95.70661919210653
95.62886367942582
128.14797142896367
127.64527506482803
127.14905835751046
126.65940326329384
126.17645059681688
125.7004135385936
125.23159908652633
124.7704387929303
124.31753005614402
123.8736885420453
123.44001007564188
123.01793824990239
122.60934409511907
122.21666250875157
121.74233669429756
121.27190137281764
120.80600932104078
120.34535640939573
119.89069000983476
119.44281335803669
119.00258144668291
118.57088023912979
102.2417141505167
102.2417141505167
102.2417141505167
102.2417141505167
102.2417141505167
102.2417141505167
102.2417141505167
102.2417141505167
102.2417141505167
102.2417141505167
97.883660765489
97.76320574277105
97.64913504995324
97.54106441985357
97.4386921520899
97.34178520533078
97.2501693448929
97.16372269123833
97.08237159352183
128.72932437477922
128.22778399380985
127.73406917185241
127.24823506371312
126.77036838312655
126.30058519756231
125.83902644005052
125.38584982516605
124.94121629619983
124.50526852363637
124.07809853075709
123.6597007832249
123.24990266329236
122.84825087982438
122.35553181722274
121.86436241984242
121.37451958778622
120.88575116450805
120.39776769707468
119.91023457541024
119.42276561095657
118.93492018469718
102.2417141505167
102.2417141505167
102.2417141505167
102.2417141505167
102.2417141505167
102.2417141505167
102.2417141505167
102.2417141505167
102.2417141505167
102.2417141505167
98.32819486230407
98.23558127562056
98.14430082939876
98.05455489026674
97.96650090494727
97.88025936978293
97.79591895354376
97.71354006104352
97.63315720314709
129.18847176225506
128.68725384412048
128.19373359650416
127.70791812838002
127.22981379354336
126.75942443079447
126.29674916945278
125.84178012875405
125.39450060016864
124.95488468557187
124.52289986972164
124.09851482467245
123.68171692516339
123.27254933200341
122.77062111662995
122.27054860654495
121.77238340198772
121.27618859084491
120.78204284127901
120.29004475034091
119.80031725398946
119.31301161201844
102.2417141505167
102.2417141505167
102.2417141505167
102.2417141505167
102.2417141505167
102.2417141505167
102.2417141505167
102.2417141505167
102.2417141505167
102.2417141505167
98.49174778628694
98.39877897514758
98.30773285114259
98.21854569939337
98.1311691187409
98.04556686664995
97.96171251574556
97.87958779212819
97.79918146015743
129.52191752418838
129.0207806756442
128.52695192172166
128.0404328834896
127.56122237480706
127.08931660777361
126.62470951509313
126.16739320044114
125.71735847218463
125.2745953034413
124.83909287022134
124.41083846135628
123.9898136760242
123.57598425842151
123.06787893794316
122.56148846989858
122.05679402317034
121.55377270679153
121.05239595959264
120.55262773374665
120.05442248261576
119.55772303876428
102.2417141505167
102.2417141505167
102.2417141505167
102.2417141505167
102.2417141505167
102.2417141505167
102.2417141505167
102.2417141505167
102.2417141505167
102.2417141505167
98.5416316074088
98.45076475746289
98.3613567358047
98.27342917809511
98.18699785649827
98.10207393552862
98.01866490107487
97.93677521958185
97.85640677942683
129.74598790205056
129.24489306113253
128.75082104609697
128.26377386089263
127.78375097316938
127.31074928204025
126.84476305192462
126.38578379303866
125.93380007519477
125.48879728326771
125.05075737173932
124.61965878749446
124.19547702577444
123.77818700943389
123.265600089458
122.75470938782658
122.24551386456345
121.73801368378476
121.23221078194891
120.72810953955998
120.22571757022334
119.7250466230712
102.2417141505167
102.2417141505167
102.2417141505167
102.2417141505167
102.2417141505167
102.2417141505167
102.2417141505167
102.2417141505167
102.2417141505167
102.2417141505167
98.55870721700202
98.46800353007995
98.37879306863823
98.29106839354104
98.20482383284538
98.12005501153696
98.03675850685508
97.9549316052123
97.8745721405735
129.87482805679696
129.37375575717715
128.87953891927276
128.39217946919553
127.91167684960168
127.43802801947976
126.97122746179136
126.51126720721938
126.05813688397467
125.61182380238375
125.17231307452273
124.73958774036407
124.31362877945317
123.89441463646062
123.37933896659563
122.86593817521302
122.35420769416419
121.84414250529677
121.33573694082946
120.82898443639034
120.32387722575459
119.82040596996183
102.2417141505167
102.2417141505167
102.2417141505167
102.2417141505167
102.2417141505167
102.2417141505167
102.2417141505167
102.2417141505167
102.2417141505167
102.2417141505167
98.56396820802748
98.47344004121497
98.3843647985852
98.29674338958996
98.21057603681933
98.12586245394262
98.0426019741884
97.96079363986625
97.88043626123884
129.91685157757797
129.41578639600337
128.92152164970813
128.4340593341111
127.95339904650255
127.47953799529911
127.01247101104823
126.55219055513513
126.09868672012331
125.65194721413947
125.21195732290548
124.77869985428046
124.35215511634657
123.93230111857264
123.41639523353506
122.90215839209708
122.38958719959938
121.8786784242431
121.36942911164152
120.86183673062303
120.3558993589618
119.8516159166766
102.2417141505167
102.2417141505167
102.2417141505167
102.2417141505167
102.2417141505167
102.2417141505167
102.2417141505167
102.2417141505167
102.2417141505167
102.2417141505167
98.56520064846556
98.47468439393715
98.38562543478457
98.29802141790898
98.21187031583719
98.1271703192478
98.04391976020017
97.96211705913596
97.88176069033067
129.87482805679772
129.37375575717792
128.8795389192735
128.39217946919618
127.91167684960223
127.43802801948021
126.9712274617918
126.51126720721986
126.05813688397518
125.61182380238432
125.17231307452333
124.73958774036474
124.31362877945388
123.89441463646133
123.37933896659635
122.8659381752137
122.35420769416488
121.84414250529738
121.33573694083005
120.8289844363909
120.32387722575515
119.82040596996244
102.2417141505167
102.2417141505167
102.2417141505167
102.2417141505167
102.2417141505167
102.2417141505167
102.2417141505167
102.2417141505167
102.2417141505167
102.2417141505167
98.56396820802836
98.4734400412159
98.38436479858613
98.29674338959092
98.2105760368203
98.12586245394363
98.04260197418942
97.96079363986725
97.88043626123984
129.74598790205172
129.24489306113372
128.75082104609814
128.26377386089376
127.78375097317051
127.3107492820414
126.84476305192571
126.3857837930397
125.9338000751958
125.48879728326877
125.05075737174036
124.61965878749548
124.19547702577549
123.77818700943497
123.2656000894591
122.75470938782762
122.24551386456449
121.7380136837858
121.23221078194995
120.72810953956106
120.22571757022442
119.72504662307222
102.2417141505167
102.2417141505167
102.2417141505167
102.2417141505167
102.2417141505167
102.2417141505167
102.2417141505167
102.2417141505167
102.2417141505167
102.2417141505167
98.55870721700413
98.4680035300821
98.37879306864045
98.29106839354333
98.20482383284768
98.12005501153924
98.03675850685737
97.95493160521463
97.87457214057584
129.5219175241892
129.020780675645
128.5269519217224
128.04043288349027
127.56122237480773
127.08931660777424
126.62470951509368
126.16739320044167
125.71735847218515
125.27459530344187
124.839092870222
124.41083846135702
123.98981367602498
123.57598425842227
123.06787893794395
122.5614884698994
122.05679402317116
121.5537727067923
121.05239595959326
120.55262773374714
120.05442248261622
119.55772303876472
102.2417141505167
102.2417141505167
102.2417141505167
102.2417141505167
102.2417141505167
102.2417141505167
102.2417141505167
102.2417141505167
102.2417141505167
102.2417141505167
98.54163160741446
98.45076475746872
98.36135673581063
98.27342917810104
98.18699785650418
98.10207393553446
98.0186649010806
97.93677521958742
97.85640677943238
129.18847176225563
128.68725384412107
128.1937335965048
127.70791812838074
127.22981379354408
126.75942443079522
126.29674916945353
125.8417801287548
125.39450060016941
124.95488468557264
124.52289986972237
124.09851482467315
123.68171692516405
123.27254933200408
122.77062111663061
122.2705486065455
121.77238340198828
121.27618859084555
120.78204284127982
120.29004475034178
119.80031725399034
119.31301161201928
102.2417141505167
102.2417141505167
102.2417141505167
102.2417141505167
102.2417141505167
102.2417141505167
102.2417141505167
102.2417141505167
102.2417141505167
102.2417141505167
98.49174778629158
98.3987789751523
98.3077328511474
98.21854569939829
98.13116911874592
98.04556686665504
97.96171251575072
97.87958779213344
97.79918146016269
128.72932437477888
128.2277839938095
127.73406917185201
127.24823506371266
126.77036838312607
126.30058519756189
125.83902644005009
125.38584982516558
124.9412162961994
124.505268523636
124.07809853075688
123.65970078322478
123.24990266329226
122.8482508798243
122.35553181722268
121.86436241984241
121.37451958778622
120.88575116450806
120.39776769707464
119.91023457541014
119.42276561095642
118.93492018469694
102.2417141505167
102.2417141505167
102.2417141505167
102.2417141505167
102.2417141505167
102.2417141505167
102.2417141505167
102.2417141505167
102.2417141505167
102.2417141505167
98.32819486230757
98.23558127562411
98.14430082940234
98.05455489027031
97.96650090495086
97.88025936978653
97.7959189535473
97.71354006104701
97.63315720315059
128.1479714289627
127.64527506482706
127.14905835750949
126.65940326329292
126.17645059681597
125.70041353859273
125.23159908652553
124.77043879292948
124.31753005614323
123.87368854204462
123.44001007564133
123.01793824990195
122.60934409511864
122.2166625087512
121.7423366942973
121.27190137281738
120.80600932104055
120.34535640939549
119.89069000983454
119.44281335803645
119.00258144668265
118.57088023912951
102.2417141505167
102.2417141505167
102.2417141505167
102.2417141505167
102.2417141505167
102.2417141505167
102.2417141505167
102.2417141505167
102.2417141505167
102.2417141505167
97.88366076549137
97.76320574277347
97.64913504995575
97.54106441985614
97.43869215209249
97.34178520533338
97.25016934489553
97.163722691241
97.0823715935245
127.50595570551033
127.00150009112356
126.50099168884358
126.00429736329521
125.51119639636539
125.021380691233
124.53445102961486
124.04991169154832
123.56716947430105
123.08554913417892
122.60434806117006
122.12296071321893
121.64106328583055
121.15871204892343
120.56050585538065
119.96308843340998
119.36646477293479
118.77060929719283
118.17546748215644
117.58097593788638
116.98711745734151
116.39404069900915
102.2417141505167
102.2417141505167
102.2417141505167
102.2417141505167
102.2417141505167
102.2417141505167
102.2417141505167
102.2417141505167
102.2417141505167
102.2417141505167
96.26729531912386
96.18686180646912
96.10600860332866
96.02515457482241
95.94460210839807
95.86456843556849
95.78520682013841
95.70661919210926
95.6288636794285
127.47295190349897
126.96843696479432
126.46779843996303
125.97088585842967
125.47745379670096
124.98716205964503
124.49956789399214
124.01411305910032
123.53011036874395
123.04673790883578
122.56306165578847
122.07814873402752
121.59136762378583
121.10273909981589
120.49591935580828
119.88978372867844
119.28434254834475
118.67950800629315
118.07505542099236
117.47057006515577
116.86531838205681
116.25809747470106
115.64163361897732
103.44854406138747
100.17494828438777
98.99767977320056
98.64714176147746
98.5157498602268
98.43539374689867
98.2725791930638
97.84402670021065
96.2644352968235
96.18245920377768
96.10173089124497
96.02098944634164
95.9404620469879
95.86030081984379
95.78064323851274
95.70159808368082
95.62324261046535
95.54562248477454
127.44008325817417
126.93551607953667
126.43476774935644
125.93766938980157
125.44395082383507
124.95324086029676
124.46505499712822
123.97877440426898
123.49361904375581
123.00861864772527
122.5225965484226
122.03425296684985
121.54258299610058
121.04758582879714
120.43206940054975
119.81719200186029
119.20300986055321
118.58940751731882
117.97603120866776
117.36219873849176
116.74672161013038
116.1271516240086
115.49985831723214
103.57118763077082
100.098009077874
98.92457181628373
98.55895049099313
98.4265794717933
98.34311669516698
98.18055923071785
97.72618683083611
96.1816720238808
96.09934386500456
96.01795433222927
95.93717010125467
95.85680485046181
95.77689352135974
95.69750137790612
95.61869421975514
95.5405240801183
95.4630234026376
127.40735573314602
126.90274447034166
126.40190920514704
125.90466076604238
125.41070420830731
124.91963907668475
124.43094191095754
123.94393686789249
123.45775503215792
122.9712811338242
122.48309197577852
121.99147270932883
121.49491893072378
120.99338268219903