# vtk DataFile Version 2.0
Niestacjonarne zagadnienie cieplne - ogrzewanie wody w garnku stalowym
ASCII
DATASET UNSTRUCTURED_GRID
POINTS 1353 float
0.0 0.0 0.0
0.0 0.0015384615384615385 0.0
0.0 0.003076923076923077 0.0
0.0 0.004615384615384615 0.0
0.0 0.006153846153846154 0.0
0.0 0.007692307692307693 0.0
0.0 0.00923076923076923 0.0
0.0 0.010769230769230769 0.0
0.0 0.012307692307692308 0.0
0.0 0.013846153846153847 0.0
0.0 0.015384615384615385 0.0
0.0 0.016923076923076923 0.0
0.0 0.01846153846153846 0.0
0.0 0.02 0.0
0.0 0.020555555555555556 0.0
0.0 0.021111111111111112 0.0
0.0 0.021666666666666667 0.0
0.0 0.022222222222222223 0.0
0.0 0.02277777777777778 0.0
0.0 0.023333333333333334 0.0
0.0 0.02388888888888889 0.0
0.0 0.024444444444444446 0.0
0.0 0.025 0.0
0.0 0.036111111111111115 0.0
0.0 0.04722222222222222 0.0
0.0 0.058333333333333334 0.0
0.0 0.06944444444444445 0.0
0.0 0.08055555555555556 0.0
0.0 0.09166666666666667 0.0
0.0 0.10277777777777777 0.0
0.0 0.1138888888888889 0.0
0.0 0.125 0.0
0.0 0.12555555555555556 0.0
0.0 0.12611111111111112 0.0
0.0 0.12666666666666668 0.0
0.0 0.1272222222222222 0.0
0.0 0.12777777777777777 0.0
0.0 0.12833333333333333 0.0
0.0 0.1288888888888889 0.0
0.0 0.12944444444444445 0.0
0.0 0.13 0.0
5.555555555555556E-4 0.0 0.0
5.555555555555556E-4 0.0015384615384615385 0.0
5.555555555555556E-4 0.003076923076923077 0.0
5.555555555555556E-4 0.004615384615384615 0.0
5.555555555555556E-4 0.006153846153846154 0.0
5.555555555555556E-4 0.007692307692307693 0.0
5.555555555555556E-4 0.00923076923076923 0.0
5.555555555555556E-4 0.010769230769230769 0.0
5.555555555555556E-4 0.012307692307692308 0.0
5.555555555555556E-4 0.013846153846153847 0.0
5.555555555555556E-4 0.015384615384615385 0.0
5.555555555555556E-4 0.016923076923076923 0.0
5.555555555555556E-4 0.01846153846153846 0.0
5.555555555555556E-4 0.02 0.0
5.555555555555556E-4 0.020555555555555556 0.0
5.555555555555556E-4 0.021111111111111112 0.0
5.555555555555556E-4 0.021666666666666667 0.0
5.555555555555556E-4 0.022222222222222223 0.0
5.555555555555556E-4 0.02277777777777778 0.0
5.555555555555556E-4 0.023333333333333334 0.0
5.555555555555556E-4 0.02388888888888889 0.0
5.555555555555556E-4 0.024444444444444446 0.0
5.555555555555556E-4 0.025 0.0
5.555555555555556E-4 0.036111111111111115 0.0
5.555555555555556E-4 0.04722222222222222 0.0
5.555555555555556E-4 0.058333333333333334 0.0
5.555555555555556E-4 0.06944444444444445 0.0
5.555555555555556E-4 0.08055555555555556 0.0
5.555555555555556E-4 0.09166666666666667 0.0
5.555555555555556E-4 0.10277777777777777 0.0
5.555555555555556E-4 0.1138888888888889 0.0
5.555555555555556E-4 0.125 0.0
5.555555555555556E-4 0.12555555555555556 0.0
5.555555555555556E-4 0.12611111111111112 0.0
5.555555555555556E-4 0.12666666666666668 0.0
5.555555555555556E-4 0.1272222222222222 0.0
5.555555555555556E-4 0.12777777777777777 0.0
5.555555555555556E-4 0.12833333333333333 0.0
5.555555555555556E-4 0.1288888888888889 0.0
5.555555555555556E-4 0.12944444444444445 0.0
5.555555555555556E-4 0.13 0.0
0.0011111111111111111 0.0 0.0
0.0011111111111111111 0.0015384615384615385 0.0
0.0011111111111111111 0.003076923076923077 0.0
0.0011111111111111111 0.004615384615384615 0.0
0.0011111111111111111 0.006153846153846154 0.0
0.0011111111111111111 0.007692307692307693 0.0
0.0011111111111111111 0.00923076923076923 0.0
0.0011111111111111111 0.010769230769230769 0.0
0.0011111111111111111 0.012307692307692308 0.0
0.0011111111111111111 0.013846153846153847 0.0
0.0011111111111111111 0.015384615384615385 0.0
0.0011111111111111111 0.016923076923076923 0.0
0.0011111111111111111 0.01846153846153846 0.0
0.0011111111111111111 0.02 0.0
0.0011111111111111111 0.020555555555555556 0.0
0.0011111111111111111 0.021111111111111112 0.0
0.0011111111111111111 0.021666666666666667 0.0
0.0011111111111111111 0.022222222222222223 0.0
0.0011111111111111111 0.02277777777777778 0.0
0.0011111111111111111 0.023333333333333334 0.0
0.0011111111111111111 0.02388888888888889 0.0
0.0011111111111111111 0.024444444444444446 0.0
0.0011111111111111111 0.025 0.0
0.0011111111111111111 0.036111111111111115 0.0
0.0011111111111111111 0.04722222222222222 0.0
0.0011111111111111111 0.058333333333333334 0.0
0.0011111111111111111 0.06944444444444445 0.0
0.0011111111111111111 0.08055555555555556 0.0
0.0011111111111111111 0.09166666666666667 0.0
0.0011111111111111111 0.10277777777777777 0.0
0.0011111111111111111 0.1138888888888889 0.0
0.0011111111111111111 0.125 0.0
0.0011111111111111111 0.12555555555555556 0.0
0.0011111111111111111 0.12611111111111112 0.0
0.0011111111111111111 0.12666666666666668 0.0
0.0011111111111111111 0.1272222222222222 0.0
0.0011111111111111111 0.12777777777777777 0.0
0.0011111111111111111 0.12833333333333333 0.0
0.0011111111111111111 0.1288888888888889 0.0
0.0011111111111111111 0.12944444444444445 0.0
0.0011111111111111111 0.13 0.0
0.0016666666666666666 0.0 0.0
0.0016666666666666666 0.0015384615384615385 0.0
0.0016666666666666666 0.003076923076923077 0.0
0.0016666666666666666 0.004615384615384615 0.0
0.0016666666666666666 0.006153846153846154 0.0
0.0016666666666666666 0.007692307692307693 0.0
0.0016666666666666666 0.00923076923076923 0.0
0.0016666666666666666 0.010769230769230769 0.0
0.0016666666666666666 0.012307692307692308 0.0
0.0016666666666666666 0.013846153846153847 0.0
0.0016666666666666666 0.015384615384615385 0.0
0.0016666666666666666 0.016923076923076923 0.0
0.0016666666666666666 0.01846153846153846 0.0
0.0016666666666666666 0.02 0.0
0.0016666666666666666 0.020555555555555556 0.0
0.0016666666666666666 0.021111111111111112 0.0
0.0016666666666666666 0.021666666666666667 0.0
0.0016666666666666666 0.022222222222222223 0.0
0.0016666666666666666 0.02277777777777778 0.0
0.0016666666666666666 0.023333333333333334 0.0
0.0016666666666666666 0.02388888888888889 0.0
0.0016666666666666666 0.024444444444444446 0.0
0.0016666666666666666 0.025 0.0
0.0016666666666666666 0.036111111111111115 0.0
0.0016666666666666666 0.04722222222222222 0.0
0.0016666666666666666 0.058333333333333334 0.0
0.0016666666666666666 0.06944444444444445 0.0
0.0016666666666666666 0.08055555555555556 0.0
0.0016666666666666666 0.09166666666666667 0.0
0.0016666666666666666 0.10277777777777777 0.0
0.0016666666666666666 0.1138888888888889 0.0
0.0016666666666666666 0.125 0.0
0.0016666666666666666 0.12555555555555556 0.0
0.0016666666666666666 0.12611111111111112 0.0
0.0016666666666666666 0.12666666666666668 0.0
0.0016666666666666666 0.1272222222222222 0.0
0.0016666666666666666 0.12777777777777777 0.0
0.0016666666666666666 0.12833333333333333 0.0
0.0016666666666666666 0.1288888888888889 0.0
0.0016666666666666666 0.12944444444444445 0.0
0.0016666666666666666 0.13 0.0
0.0022222222222222222 0.0 0.0
0.0022222222222222222 0.0015384615384615385 0.0
0.0022222222222222222 0.003076923076923077 0.0
0.0022222222222222222 0.004615384615384615 0.0
0.0022222222222222222 0.006153846153846154 0.0
0.0022222222222222222 0.007692307692307693 0.0
0.0022222222222222222 0.00923076923076923 0.0
0.0022222222222222222 0.010769230769230769 0.0
0.0022222222222222222 0.012307692307692308 0.0
0.0022222222222222222 0.013846153846153847 0.0
0.0022222222222222222 0.015384615384615385 0.0
0.0022222222222222222 0.016923076923076923 0.0
0.0022222222222222222 0.01846153846153846 0.0
0.0022222222222222222 0.02 0.0
0.0022222222222222222 0.020555555555555556 0.0
0.0022222222222222222 0.021111111111111112 0.0
0.0022222222222222222 0.021666666666666667 0.0
0.0022222222222222222 0.022222222222222223 0.0
0.0022222222222222222 0.02277777777777778 0.0
0.0022222222222222222 0.023333333333333334 0.0
0.0022222222222222222 0.02388888888888889 0.0
0.0022222222222222222 0.024444444444444446 0.0
0.0022222222222222222 0.025 0.0
0.0022222222222222222 0.036111111111111115 0.0
0.0022222222222222222 0.04722222222222222 0.0
0.0022222222222222222 0.058333333333333334 0.0
0.0022222222222222222 0.06944444444444445 0.0
0.0022222222222222222 0.08055555555555556 0.0
0.0022222222222222222 0.09166666666666667 0.0
0.0022222222222222222 0.10277777777777777 0.0
0.0022222222222222222 0.1138888888888889 0.0
0.0022222222222222222 0.125 0.0
0.0022222222222222222 0.12555555555555556 0.0
0.0022222222222222222 0.12611111111111112 0.0
0.0022222222222222222 0.12666666666666668 0.0
0.0022222222222222222 0.1272222222222222 0.0
0.0022222222222222222 0.12777777777777777 0.0
0.0022222222222222222 0.12833333333333333 0.0
0.0022222222222222222 0.1288888888888889 0.0
0.0022222222222222222 0.12944444444444445 0.0
0.0022222222222222222 0.13 0.0
0.002777777777777778 0.0 0.0
0.002777777777777778 0.0015384615384615385 0.0
0.002777777777777778 0.003076923076923077 0.0
0.002777777777777778 0.004615384615384615 0.0
0.002777777777777778 0.006153846153846154 0.0
0.002777777777777778 0.007692307692307693 0.0
0.002777777777777778 0.00923076923076923 0.0
0.002777777777777778 0.010769230769230769 0.0
0.002777777777777778 0.012307692307692308 0.0
0.002777777777777778 0.013846153846153847 0.0
0.002777777777777778 0.015384615384615385 0.0
0.002777777777777778 0.016923076923076923 0.0
0.002777777777777778 0.01846153846153846 0.0
0.002777777777777778 0.02 0.0
0.002777777777777778 0.020555555555555556 0.0
0.002777777777777778 0.021111111111111112 0.0
0.002777777777777778 0.021666666666666667 0.0
0.002777777777777778 0.022222222222222223 0.0
0.002777777777777778 0.02277777777777778 0.0
0.002777777777777778 0.023333333333333334 0.0
0.002777777777777778 0.02388888888888889 0.0
0.002777777777777778 0.024444444444444446 0.0
0.002777777777777778 0.025 0.0
0.002777777777777778 0.036111111111111115 0.0
0.002777777777777778 0.04722222222222222 0.0
0.002777777777777778 0.058333333333333334 0.0
0.002777777777777778 0.06944444444444445 0.0
0.002777777777777778 0.08055555555555556 0.0
0.002777777777777778 0.09166666666666667 0.0
0.002777777777777778 0.10277777777777777 0.0
0.002777777777777778 0.1138888888888889 0.0
0.002777777777777778 0.125 0.0
0.002777777777777778 0.12555555555555556 0.0
0.002777777777777778 0.12611111111111112 0.0
[...]
POINT_DATA 1353
SCALARS Temperatura float 1
LOOKUP_TABLE default
109.42140928858133
108.90262151737662
108.3884817157849
107.87860044058445
107.37261002200437
106.87005405714159
106.37034404391471
105.87270326840449
105.37609036335682
104.87905147882
104.37956306614326
103.87415294807205
103.3586334321008
102.80870017673337
102.08885632728621
101.4138293651963
100.75276875381394
100.10034140303864
99.4532474429508
98.8093783724732
98.16722175302125
97.52568699989675
96.88405096835928
85.70433424898935
81.64865897915601
80.45505728384408
80.05084328906118
79.91474095785085
79.8336005930936
79.69866381300321
79.27386979705157
78.12199982095655
78.05798050511018
77.99441349480169
77.93136587082923
77.8688888786418
77.80702156427093
77.74579354446715
77.68522677514696
77.62533646314783
77.5661314094485
109.44805447754071
108.92915983790327
108.41488656548847
107.90487765151386
107.39876601068424
106.89609850293263
106.39628951965227
105.89856798106591
105.40189618753159
104.90485198551573
104.40535536190973
103.90038993421743
103.38405771384615
102.84395835287799
102.16310110733427
101.49143072556856
100.83221514101767
100.18055458221586
99.53379516278116
98.89000122080533
98.24772763236409
97.60590020953293
96.96379031886673
85.75937063997259
81.71065034591204
80.51676047763623
80.1128296711736
79.97678175965287
79.89568476545436
79.76072350637413
79.33667226493822
78.18205843522743
78.1179300535449
78.05426442473569
77.99112654745697
77.92856581632529
77.86661991381415
77.80531763526801
77.74468055900509
77.68472378969173
77.62545613907483
109.47479494192223
108.9558526528856
108.44148948733903
107.93139969717679
107.42522549330866
106.9225219375063
106.42271338162213
105.92504273717846
105.42849740938279
104.93168920474972
104.43264191838341
103.92845524831462
103.41383064710516
102.88347707119472
102.21964377811788
101.55991650910482
100.90611629722508
100.25776366396322
99.61318814179901
98.97088534572212
98.32956456585872
97.68818121787382
97.04597697099156
85.78993717113828
81.77063641482587
80.57821762370907
80.17599435273364
80.04037768993048
79.9595822366859
79.82481221291118
79.40388373839677
78.2433640414568
78.17904147797701
78.11521224858139
78.05193449847205
77.98925170243432
77.92719734030916
77.86579781526778
77.80507372412846
77.74504001114222
77.68570561676034
109.50165975983019
108.98270070178546
108.46828938698545
107.95816440930398
107.45198525539453
106.94932000663039
106.4496092010122
105.95211943020664
105.45587617597586
104.95955570354808
104.46131874260443
103.95847355843706
103.44700221729332
102.92471196291919
102.27270017589379
101.62286109430931
100.97626920552398
100.33292393648578
99.69205069382369
99.05253402635228
98.41322469036608
97.77306559723873
97.13120335150198
85.79551977335403
81.82887085300966
80.63936015792174
80.24036339963456
80.10552257527874
80.02530352882142
79.89090589201017
79.47555578779003
78.30588057683698
78.24128571882504
78.17723527695115
78.11377422131919
78.05093523783786
77.9887447632984
77.92722575883658
77.86639791525292
77.80627652643084
77.74687112762959
109.528663685978
109.00970710939896
108.49528408373854
107.98516809753635
107.47903995114946
106.97648534223465
106.4769667561743
105.97978291627548
105.48401013327407
104.98841329798536
104.49131246395977
103.99035938824257
103.48267586228603
102.96731719652355
102.32489201667367
101.68379150870881
101.04456822723004
100.40722078588882
99.77122248463614
99.13567500699693
98.49946913114407
97.86143063386535
97.22048248644835
85.77526104388393
81.88578791258
80.70006921505265
80.30598139348344
80.17220420375243
80.09286563506811
79.95896205399866
79.5517729705813
78.36954446562211
78.30461327068046
78.240298229344
78.17662166995792
78.113599289722
78.05124803717896
77.98958775041399
77.92863872002631
77.86841814130624
77.80893716979791
109.55581415883906
109.03687385524218
108.52247060461293
108.01240548001307
107.50638213979673
107.00400776541657
106.5047718999549
106.00801268151598
105.51286862658363
105.01820991953836
104.5225417386684
104.02391194047831
103.52028641119902
103.01118866022281
102.37728096657435
101.74429708343133
101.11247550188608
100.48171868502278
99.85154944749524
99.2211192393527
98.58924246489869
97.9544738013964
97.31529634074928
85.72793227765243
81.94201823656803
80.7601682122837
80.37291445903129
80.24040297215757
80.16229309599035
80.02891815107857
79.63265537452868
78.43426021499417
78.36895440353882
78.30435594953869
78.24044928813856
78.17722510700897
78.11469048206766
78.05286561176354
77.99177559354796
77.93144247395992
77.87188070341269
109.58311410972843
109.06420091040805
108.54984487972158
108.03986972417675
107.53400235124047
107.03187442910892
106.5330068732419
106.03678332190313
105.54241341136901
105.04888458550369
104.55490553692177
104.05891128405925
103.55946313606417
103.05624943563444
102.43033887711023
101.8051881513565
101.18085668517696
100.55717827125106
99.93369365017193
99.30958330837353
98.68353463862103
98.05367062262731
97.41768127015003
85.65188884450981
81.99841285369615
80.8194117497996
80.4412547911228
80.31008985945182
80.23361960515477
80.1006891688223
79.71836257165668
78.49989303104702
78.43422104436657
78.36936246999164
78.30523598370262
78.24179966765527
78.17905576713962
78.11703718337978
78.05578110182516
77.9953186438694
77.9356696844965
109.6105632576634
109.09168614659833
108.57740149620507
108.06755246673954
107.56188917926316
107.06007000135389
106.56165066765598
106.06606505127726
105.57260020542897
105.08036860596327
104.58828957636439
104.09515044067356
103.59993924780179
103.1024093374805
102.48426172080754
101.86685347116607
101.25015912029923
100.63400183334633
100.01799034151799
99.40142767885064
98.78312917280138
98.16065160165996
97.53037713151559
85.54500083934705
82.05607801486951
80.8774698817415
80.51112704228373
80.38122356581425
80.30689027005964
80.1741641916981
79.80909960453545
78.56625646958474
78.50031523407452
78.435288744286
78.37099263007688
78.30732286489084
78.24432936509582
78.18207524870438
78.12061888499473
78.0600049042613
78.00026062332878
109.63815880742281
109.1193254600166
108.60513358494583
108.0954438330346
107.59002939456622
107.08857688274173
106.59067940455482
106.09582437620813
105.60338003451155
105.11258731671265
104.62257390471257
104.13244116783034
103.64150241462656
103.14955916502127
102.53908848376037
101.92942721729882
101.3205285936946
100.71226052191501
100.10436998018352
99.49643072259016
98.88771361476132
98.27704598260546
97.65708598061
85.40454515406321
82.11642531129363
80.93390623078017
80.58269712762757
80.4537465950283
80.3821646427345
80.2492018710519
79.90512494941225
78.6330958298144
78.5670650389438
78.50226205414863
78.43777373259782
78.37380914396424
78.31049557927908
78.24794368379568
78.18623984827641
78.12544503660928
78.06559507062948
109.66589588967724
109.14711294749478
108.63303280589908
108.12353247543598
107.61840807367088
107.11737544409874
106.62006674080187
106.12602482409827
105.63470047724624
105.14546229776202
104.65763787857095
104.17061118764474
103.68396834958155
103.1975727797315
102.59476295015894
101.99288412480034
101.39190315618295
100.7917641540666
100.19239280591638
99.59371855477264
98.99573136951214
98.39860254193027
83.63708313180571
83.63708313180571
83.63708313180571
83.63708313180571
83.63708313180571
83.63708313180571
83.63708313180571
83.63708313180571
83.63708313180571
83.63708313180571
78.63542629286887
78.57048811150196
78.50566958154145
78.44127511677274
78.37752803478789
78.31459021688208
78.25257654818574
78.19156366789446
78.1315952383427
110.20980684367113
109.69258036857504
109.1823393377534
108.67915784785612
108.18316245441648
107.69454429649637
107.21357849772927
106.74065211910093
106.2763019652679
105.82126314109992
105.37652764270746
104.94341084106627
104.5236323619968
104.11944958594079
103.63059649781728
103.14565192583277
102.66522411368516
102.18996032077196
101.72055401709599
101.25774807342728
100.80232943463929
100.35510710135856
83.63708313180571
83.63708313180571
83.63708313180571
83.63708313180571
83.63708313180571
83.63708313180571
83.63708313180571
83.63708313180571
83.63708313180571
83.63708313180571
79.93770064306112
79.8395426536363
79.74705723349987
79.659938079601
79.57794261725324
79.50088238611283
79.4286158570623
79.36104364201628
79.2981053949038
110.70667346768671
110.19048298708212
109.68252423929377
109.18284820730145
108.6915345917667
108.20868990972119
107.73444354822945
107.26894057883314
106.81232960317995
106.36474327833967
105.92626862141324
105.49690331166805
105.07649017901353
104.66461055413671
104.15956202473281
103.65626557802543
103.15451465645593
102.65407601503057
102.15468223465275
101.6560246664143
101.15774790711139
100.65944794383093
83.63708313180571
83.63708313180571
83.63708313180571
83.63708313180571
83.63708313180571
83.63708313180571
83.63708313180571
83.63708313180571
83.63708313180571
83.63708313180571
80.29411067092772
80.21856392824802
80.14459826469086
80.07237534751252
80.00202203836166
79.93363558381456
79.86728754980378
79.80302659439316
79.74088032614137
111.1000491109031
110.58414635590854
110.07638796051694
109.57678154342507
109.08533416957621
108.60205073841246
108.1269319686771
107.65997227235275
107.20115805200038
106.750467322507
106.30787206094914
105.87334550751875
105.44687867158756
105.0285150853901
104.51556448392715
104.00465787813867
103.49584398111224
102.98918210849288
102.48474593483725
101.98262746316588
101.48294099405965
100.98582659607271
83.63708313180571
83.63708313180571
83.63708313180571
83.63708313180571
83.63708313180571
83.63708313180571
83.63708313180571
83.63708313180571
83.63708313180571
83.63708313180571
80.42539498296713
80.34949936842592
80.27567038347817
80.20385597040136
80.13401630235981
80.06612134931476
80.00014903493117
79.93608391813726
79.87391630369832
111.38569256544665
110.86986027355763
110.3618405293564
109.86163592611067
109.36924661074671
108.88467047207232
108.40790343751972
107.93893989117662
107.4777731747921
107.02439602760079
106.57880063556757
106.14097761195264
105.71091240935108
105.2885757908266
104.77035019440346
104.25404154376689
103.73963288240462
103.22710349719014
102.7164274338955
102.20757182866298
101.70049507448594
101.19514491590655
83.63708313180571
83.63708313180571
83.63708313180571
83.63708313180571
83.63708313180571
83.63708313180571
83.63708313180571
83.63708313180571
83.63708313180571
83.63708313180571
80.46531475144675
80.39111816699227
80.31861260045964
80.24781509914735
80.17873799527374
80.11138989168916
80.04577640102298
79.98190067356933
79.91976375211442
111.5775322834894
111.06173607194314
110.55350840977137
110.05285223503721
109.55976827418993
109.07425501263836
108.5963086338991
108.1259229087566
107.66308902123298
107.2077953384423
106.76002717867571
106.31976674025596
105.8869936312917
105.461687103977
104.93961599665408
104.41944747800866
103.90118113620949
103.38481767477494
102.87035943767522
102.3578110283597
101.84718003294088
101.33847783992455
83.63708313180571
83.63708313180571
83.63708313180571
83.63708313180571
83.63708313180571
83.63708313180571
83.63708313180571
83.63708313180571
83.63708313180571
83.63708313180571
80.47897671890895
80.40490655235237
80.33255621322864
80.26191918285853
80.19299036026352
80.12576568932992
80.06024188275877
79.99641622639625
79.93428644874179
111.68779063771127
111.17201371719396
110.6636621162631
110.16273869164453
109.66924412422428
109.18317691831216
108.70453340790895
108.23330777773454
107.76949210845005
107.31307645438986
106.86404895386931
106.42239594413645
105.9881019659994
105.5611493124231
105.03694920025805
104.51463338446584
103.99419811179762
103.47563920989867
102.95895190235854
102.4441305804428
101.93116852213213
101.42005755287637
83.63708313180571
83.63708313180571
83.63708313180571
83.63708313180571
83.63708313180571
83.63708313180571
83.63708313180571
83.63708313180571
83.63708313180571
83.63708313180571
80.48317721162763
80.40924824056253
80.33700651700723
80.266452305
80.19758530754042
80.1304048086156
80.06490977657066
80.00109893643561
79.93897081761286
111.72374478367651
111.20797394086614
110.69958131411877
110.19856982008967
109.70494027367971
109.21869139618785
108.73981982489184
108.26832012026334
107.8041847650926
107.34740414835393
106.8979665279135
106.45585797725774
106.02106236501075
105.59356154392614
105.06865010935489
104.54561808726888
104.024462814594
103.50518177849035
102.9877727224974
102.47223378137518
101.95856365228045
101.44676180873715
83.63708313180571
83.63708313180571
83.63708313180571
83.63708313180571
83.63708313180571
83.63708313180571
83.63708313180571
83.63708313180571
83.63708313180571
83.63708313180571
80.48416105008546
80.41024126602466
80.33801235876078
80.26747194206834
80.19861788656739
80.13144823365772
80.06596113362285
80.00215480274727
79.94002749530134
111.68779063771194
111.17201371719464
110.66366211626374
110.16273869164512
109.66924412422476
109.1831769183126
108.70453340790935
108.23330777773498
107.76949210845052
107.31307645439037
106.86404895386984
106.42239594413704
105.988101966
105.5611493124237
105.03694920025869
104.51463338446646
103.9941981117982
103.4756392098992
102.95895190235903
102.4441305804433
101.93116852213262
101.42005755287691
83.63708313180571
83.63708313180571
83.63708313180571
83.63708313180571
83.63708313180571
83.63708313180571
83.63708313180571
83.63708313180571
83.63708313180571
83.63708313180571
80.48317721162839
80.40924824056331
80.337006517008
80.26645230500078
80.19758530754122
80.13040480861643
80.06490977657151
80.00109893643645
79.9389708176137
111.57753228349041
111.06173607194417
110.55350840977236
110.05285223503816
109.55976827419087
109.07425501263927
108.5963086339
108.12592290875749
107.66308902123382
107.20779533844313
106.76002717867655
106.3197667402568
105.88699363129255
105.4616871039779
104.93961599665498
104.41944747800954
103.90118113621038
103.38481767477585
102.87035943767613
102.35781102836062
101.84718003294181
101.33847783992545
83.63708313180571
83.63708313180571
83.63708313180571
83.63708313180571
83.63708313180571
83.63708313180571
83.63708313180571
83.63708313180571
83.63708313180571
83.63708313180571
80.4789767189108
80.40490655235426
80.33255621323057
80.26191918286052
80.19299036026551
80.12576568933189
80.06024188276076
79.99641622639825
79.9342864487438
111.38569256544729
110.86986027355825
110.36184052935698
109.86163592611122
109.36924661074727
108.88467047207286
108.40790343752023
107.93893989117709
107.47777317479255
107.02439602760126
106.57880063556813
106.14097761195323
105.71091240935172
105.28857579082725
104.77035019440414
104.2540415437676
103.73963288240529
103.22710349719075
102.716427433896
102.2075718286634
101.7004950744863
101.19514491590688
83.63708313180571
83.63708313180571
83.63708313180571
83.63708313180571
83.63708313180571
83.63708313180571
83.63708313180571
83.63708313180571
83.63708313180571
83.63708313180571
80.46531475145146
80.39111816699712
80.31861260046456
80.24781509915225
80.17873799527862
80.11138989169399
80.04577640102771
79.98190067357395
79.91976375211901
111.1000491109036
110.58414635590906
110.0763879605175
109.57678154342568
109.08533416957681
108.60205073841304
108.12693196867771
107.65997227235334
107.20115805200102
106.75046732250766
106.30787206094978
105.87334550751935
105.4468786715881
105.02851508539061
104.51556448392766
104.00465787813911
103.49584398111271
102.98918210849342
102.48474593483792
101.98262746316661
101.4829409940604
100.98582659607345
83.63708313180571
83.63708313180571
83.63708313180571
83.63708313180571
83.63708313180571
83.63708313180571
83.63708313180571
83.63708313180571
83.63708313180571
83.63708313180571
80.4253949829709
80.34949936842978
80.27567038348211
80.20385597040537
80.1340163023639
80.06612134931889
80.00014903493536
79.93608391814152
79.8739163037026
110.7066734676864
110.19048298708181
109.68252423929343
109.18284820730103
108.69153459176627
108.20868990972083
107.7344435482291
107.26894057883275
106.81232960317956
106.36474327833935
105.92626862141303
105.49690331166794
105.07649017901343
104.66461055413666
104.15956202473275
103.6562655780254
103.15451465645587
102.65407601503054
102.15468223465265
101.65602466641415
101.1577479071112
100.65944794383068
83.63708313180571
83.63708313180571
83.63708313180571
83.63708313180571
83.63708313180571
83.63708313180571
83.63708313180571
83.63708313180571
83.63708313180571
83.63708313180571
80.29411067093055
80.21856392825087
80.14459826469374
80.07237534751539
80.00202203836454
79.93363558381745
79.86728754980662
79.80302659439594
79.74088032614416
110.20980684367032
109.69258036857424
109.18233933775261
108.67915784785534
108.18316245441568
107.69454429649565
107.21357849772862
106.74065211910026
106.27630196526727
105.82126314109934
105.37652764270698
104.94341084106588
104.52363236199643
104.11944958594049
103.63059649781702
103.14565192583254
102.66522411368497
102.18996032077175
101.72055401709578
101.25774807342707
100.80232943463905
100.35510710135829
83.63708313180571
83.63708313180571
83.63708313180571
83.63708313180571
83.63708313180571
83.63708313180571
83.63708313180571
83.63708313180571
83.63708313180571
83.63708313180571
79.93770064306304
79.83954265363828
79.74705723350192
79.65993807960311
79.57794261725536
79.50088238611497
79.42861585706446
79.36104364201849
79.29810539490599
109.66589588967612
109.14711294749367
108.63303280589811
108.12353247543516
107.61840807367024
107.11737544409822
106.6200667408014
106.12602482409781
105.63470047724586
105.14546229776163
104.65763787857044
104.17061118764421
103.68396834958114
103.19757277973117
102.59476295015877
101.9928841248003
101.39190315618303
100.79176415406687
100.19239280591677
99.59371855477309
98.99573136951264
98.39860254193076
83.63708313180571
83.63708313180571
83.63708313180571
83.63708313180571
83.63708313180571
83.63708313180571
83.63708313180571
83.63708313180571
83.63708313180571
83.63708313180571
78.63542629287105
78.57048811150418
78.50566958154369
78.441275116775
78.37752803479019
78.31459021688438
78.25257654818802
78.19156366789665
78.13159523834487
109.63815880742159
109.11932546001538
108.60513358494482
108.09544383303383
107.59002939456555
107.08857688274125
106.59067940455431
106.09582437620766
105.60338003451106
105.11258731671225
104.62257390471204
104.13244116782971
103.64150241462612
103.14955916502103
102.53908848376021
101.92942721729888
101.32052859369473
100.71226052191524
100.10436998018392
99.49643072259067
98.88771361476184
98.27704598260604
97.65708598061059
85.40454515406529
82.11642531129338
80.93390623078018
80.58269712762919
80.4537465950288
80.38216464273522
80.24920187105282
79.9051249494112
78.6330958298165
78.567065038946
78.5022620541508
78.43777373260001
78.37380914396647
78.31049557928134
78.24794368379791
78.18623984827859
78.12544503661147
78.0655950706316
109.61056325766212
109.09168614659707
108.577401496204
108.06755246673882
107.56188917926251
107.06007000135334
106.56165066765554
106.0660650512767
105.57260020542856
105.08036860596282
104.58828957636385
104.09515044067294
103.59993924780142
103.10240933748027
102.48426172080745
101.86685347116608
101.25015912029941
100.63400183334662
100.01799034151841
99.40142767885115
98.78312917280196
98.16065160166066
97.53037713151622
85.54500083934917
82.05607801486937
80.87746988174159
80.51112704228534
80.38122356581476
80.30689027006039
80.17416419169909
79.80909960453437
78.56625646958688
78.50031523407667
78.43528874428814
78.370992630079
78.30732286489298
78.244329365098
78.18207524870658
78.12061888499693
78.06000490426345
78.00026062333089
109.58311410972709
109.06420091040678
108.5498448797206
108.03986972417599
107.5340023512398
107.03187442910841
106.53300687324133
106.0367833219026
105.54241341136851
105.04888458550323
104.55490553692117
104.0589112840588
103.55946313606373
103.05624943563426
102.43033887711022
101.80518815135653
101.18085668517716
100.55717827125135
99.93369365017234
99.30958330837407