# vtk DataFile Version 2.0
Niestacjonarne zagadnienie cieplne - ogrzewanie wody w garnku stalowym
ASCII
DATASET UNSTRUCTURED_GRID
POINTS 1353 float
0.0 0.0 0.0
0.0 0.0015384615384615385 0.0
0.0 0.003076923076923077 0.0
0.0 0.004615384615384615 0.0
0.0 0.006153846153846154 0.0
0.0 0.007692307692307693 0.0
0.0 0.00923076923076923 0.0
0.0 0.010769230769230769 0.0
0.0 0.012307692307692308 0.0
0.0 0.013846153846153847 0.0
0.0 0.015384615384615385 0.0
0.0 0.016923076923076923 0.0
0.0 0.01846153846153846 0.0
0.0 0.02 0.0
0.0 0.020555555555555556 0.0
0.0 0.021111111111111112 0.0
0.0 0.021666666666666667 0.0
0.0 0.022222222222222223 0.0
0.0 0.02277777777777778 0.0
0.0 0.023333333333333334 0.0
0.0 0.02388888888888889 0.0
0.0 0.024444444444444446 0.0
0.0 0.025 0.0
0.0 0.036111111111111115 0.0
0.0 0.04722222222222222 0.0
0.0 0.058333333333333334 0.0
0.0 0.06944444444444445 0.0
0.0 0.08055555555555556 0.0
0.0 0.09166666666666667 0.0
0.0 0.10277777777777777 0.0
0.0 0.1138888888888889 0.0
0.0 0.125 0.0
0.0 0.12555555555555556 0.0
0.0 0.12611111111111112 0.0
0.0 0.12666666666666668 0.0
0.0 0.1272222222222222 0.0
0.0 0.12777777777777777 0.0
0.0 0.12833333333333333 0.0
0.0 0.1288888888888889 0.0
0.0 0.12944444444444445 0.0
0.0 0.13 0.0
5.555555555555556E-4 0.0 0.0
5.555555555555556E-4 0.0015384615384615385 0.0
5.555555555555556E-4 0.003076923076923077 0.0
5.555555555555556E-4 0.004615384615384615 0.0
5.555555555555556E-4 0.006153846153846154 0.0
5.555555555555556E-4 0.007692307692307693 0.0
5.555555555555556E-4 0.00923076923076923 0.0
5.555555555555556E-4 0.010769230769230769 0.0
5.555555555555556E-4 0.012307692307692308 0.0
5.555555555555556E-4 0.013846153846153847 0.0
5.555555555555556E-4 0.015384615384615385 0.0
5.555555555555556E-4 0.016923076923076923 0.0
5.555555555555556E-4 0.01846153846153846 0.0
5.555555555555556E-4 0.02 0.0
5.555555555555556E-4 0.020555555555555556 0.0
5.555555555555556E-4 0.021111111111111112 0.0
5.555555555555556E-4 0.021666666666666667 0.0
5.555555555555556E-4 0.022222222222222223 0.0
5.555555555555556E-4 0.02277777777777778 0.0
5.555555555555556E-4 0.023333333333333334 0.0
5.555555555555556E-4 0.02388888888888889 0.0
5.555555555555556E-4 0.024444444444444446 0.0
5.555555555555556E-4 0.025 0.0
5.555555555555556E-4 0.036111111111111115 0.0
5.555555555555556E-4 0.04722222222222222 0.0
5.555555555555556E-4 0.058333333333333334 0.0
5.555555555555556E-4 0.06944444444444445 0.0
5.555555555555556E-4 0.08055555555555556 0.0
5.555555555555556E-4 0.09166666666666667 0.0
5.555555555555556E-4 0.10277777777777777 0.0
5.555555555555556E-4 0.1138888888888889 0.0
5.555555555555556E-4 0.125 0.0
5.555555555555556E-4 0.12555555555555556 0.0
5.555555555555556E-4 0.12611111111111112 0.0
5.555555555555556E-4 0.12666666666666668 0.0
5.555555555555556E-4 0.1272222222222222 0.0
5.555555555555556E-4 0.12777777777777777 0.0
5.555555555555556E-4 0.12833333333333333 0.0
5.555555555555556E-4 0.1288888888888889 0.0
5.555555555555556E-4 0.12944444444444445 0.0
5.555555555555556E-4 0.13 0.0
0.0011111111111111111 0.0 0.0
0.0011111111111111111 0.0015384615384615385 0.0
0.0011111111111111111 0.003076923076923077 0.0
0.0011111111111111111 0.004615384615384615 0.0
0.0011111111111111111 0.006153846153846154 0.0
0.0011111111111111111 0.007692307692307693 0.0
0.0011111111111111111 0.00923076923076923 0.0
0.0011111111111111111 0.010769230769230769 0.0
0.0011111111111111111 0.012307692307692308 0.0
0.0011111111111111111 0.013846153846153847 0.0
0.0011111111111111111 0.015384615384615385 0.0
0.0011111111111111111 0.016923076923076923 0.0
0.0011111111111111111 0.01846153846153846 0.0
0.0011111111111111111 0.02 0.0
0.0011111111111111111 0.020555555555555556 0.0
0.0011111111111111111 0.021111111111111112 0.0
0.0011111111111111111 0.021666666666666667 0.0
0.0011111111111111111 0.022222222222222223 0.0
0.0011111111111111111 0.02277777777777778 0.0
0.0011111111111111111 0.023333333333333334 0.0
0.0011111111111111111 0.02388888888888889 0.0
0.0011111111111111111 0.024444444444444446 0.0
0.0011111111111111111 0.025 0.0
0.0011111111111111111 0.036111111111111115 0.0
0.0011111111111111111 0.04722222222222222 0.0
0.0011111111111111111 0.058333333333333334 0.0
0.0011111111111111111 0.06944444444444445 0.0
0.0011111111111111111 0.08055555555555556 0.0
0.0011111111111111111 0.09166666666666667 0.0
0.0011111111111111111 0.10277777777777777 0.0
0.0011111111111111111 0.1138888888888889 0.0
0.0011111111111111111 0.125 0.0
0.0011111111111111111 0.12555555555555556 0.0
0.0011111111111111111 0.12611111111111112 0.0
0.0011111111111111111 0.12666666666666668 0.0
0.0011111111111111111 0.1272222222222222 0.0
0.0011111111111111111 0.12777777777777777 0.0
0.0011111111111111111 0.12833333333333333 0.0
0.0011111111111111111 0.1288888888888889 0.0
0.0011111111111111111 0.12944444444444445 0.0
0.0011111111111111111 0.13 0.0
0.0016666666666666666 0.0 0.0
0.0016666666666666666 0.0015384615384615385 0.0
0.0016666666666666666 0.003076923076923077 0.0
0.0016666666666666666 0.004615384615384615 0.0
0.0016666666666666666 0.006153846153846154 0.0
0.0016666666666666666 0.007692307692307693 0.0
0.0016666666666666666 0.00923076923076923 0.0
0.0016666666666666666 0.010769230769230769 0.0
0.0016666666666666666 0.012307692307692308 0.0
0.0016666666666666666 0.013846153846153847 0.0
0.0016666666666666666 0.015384615384615385 0.0
0.0016666666666666666 0.016923076923076923 0.0
0.0016666666666666666 0.01846153846153846 0.0
0.0016666666666666666 0.02 0.0
0.0016666666666666666 0.020555555555555556 0.0
0.0016666666666666666 0.021111111111111112 0.0
0.0016666666666666666 0.021666666666666667 0.0
0.0016666666666666666 0.022222222222222223 0.0
0.0016666666666666666 0.02277777777777778 0.0
0.0016666666666666666 0.023333333333333334 0.0
0.0016666666666666666 0.02388888888888889 0.0
0.0016666666666666666 0.024444444444444446 0.0
0.0016666666666666666 0.025 0.0
0.0016666666666666666 0.036111111111111115 0.0
0.0016666666666666666 0.04722222222222222 0.0
0.0016666666666666666 0.058333333333333334 0.0
0.0016666666666666666 0.06944444444444445 0.0
0.0016666666666666666 0.08055555555555556 0.0
0.0016666666666666666 0.09166666666666667 0.0
0.0016666666666666666 0.10277777777777777 0.0
0.0016666666666666666 0.1138888888888889 0.0
0.0016666666666666666 0.125 0.0
0.0016666666666666666 0.12555555555555556 0.0
0.0016666666666666666 0.12611111111111112 0.0
0.0016666666666666666 0.12666666666666668 0.0
0.0016666666666666666 0.1272222222222222 0.0
0.0016666666666666666 0.12777777777777777 0.0
0.0016666666666666666 0.12833333333333333 0.0
0.0016666666666666666 0.1288888888888889 0.0
0.0016666666666666666 0.12944444444444445 0.0
0.0016666666666666666 0.13 0.0
0.0022222222222222222 0.0 0.0
0.0022222222222222222 0.0015384615384615385 0.0
0.0022222222222222222 0.003076923076923077 0.0
0.0022222222222222222 0.004615384615384615 0.0
0.0022222222222222222 0.006153846153846154 0.0
0.0022222222222222222 0.007692307692307693 0.0
0.0022222222222222222 0.00923076923076923 0.0
0.0022222222222222222 0.010769230769230769 0.0
0.0022222222222222222 0.012307692307692308 0.0
0.0022222222222222222 0.013846153846153847 0.0
0.0022222222222222222 0.015384615384615385 0.0
0.0022222222222222222 0.016923076923076923 0.0
0.0022222222222222222 0.01846153846153846 0.0
0.0022222222222222222 0.02 0.0
0.0022222222222222222 0.020555555555555556 0.0
0.0022222222222222222 0.021111111111111112 0.0
0.0022222222222222222 0.021666666666666667 0.0
0.0022222222222222222 0.022222222222222223 0.0
0.0022222222222222222 0.02277777777777778 0.0
0.0022222222222222222 0.023333333333333334 0.0
0.0022222222222222222 0.02388888888888889 0.0
0.0022222222222222222 0.024444444444444446 0.0
0.0022222222222222222 0.025 0.0
0.0022222222222222222 0.036111111111111115 0.0
0.0022222222222222222 0.04722222222222222 0.0
0.0022222222222222222 0.058333333333333334 0.0
0.0022222222222222222 0.06944444444444445 0.0
0.0022222222222222222 0.08055555555555556 0.0
0.0022222222222222222 0.09166666666666667 0.0
0.0022222222222222222 0.10277777777777777 0.0
0.0022222222222222222 0.1138888888888889 0.0
0.0022222222222222222 0.125 0.0
0.0022222222222222222 0.12555555555555556 0.0
0.0022222222222222222 0.12611111111111112 0.0
0.0022222222222222222 0.12666666666666668 0.0
0.0022222222222222222 0.1272222222222222 0.0
0.0022222222222222222 0.12777777777777777 0.0
0.0022222222222222222 0.12833333333333333 0.0
0.0022222222222222222 0.1288888888888889 0.0
0.0022222222222222222 0.12944444444444445 0.0
0.0022222222222222222 0.13 0.0
0.002777777777777778 0.0 0.0
0.002777777777777778 0.0015384615384615385 0.0
0.002777777777777778 0.003076923076923077 0.0
0.002777777777777778 0.004615384615384615 0.0
0.002777777777777778 0.006153846153846154 0.0
0.002777777777777778 0.007692307692307693 0.0
0.002777777777777778 0.00923076923076923 0.0
0.002777777777777778 0.010769230769230769 0.0
0.002777777777777778 0.012307692307692308 0.0
0.002777777777777778 0.013846153846153847 0.0
0.002777777777777778 0.015384615384615385 0.0
0.002777777777777778 0.016923076923076923 0.0
0.002777777777777778 0.01846153846153846 0.0
0.002777777777777778 0.02 0.0
0.002777777777777778 0.020555555555555556 0.0
0.002777777777777778 0.021111111111111112 0.0
0.002777777777777778 0.021666666666666667 0.0
0.002777777777777778 0.022222222222222223 0.0
0.002777777777777778 0.02277777777777778 0.0
0.002777777777777778 0.023333333333333334 0.0
0.002777777777777778 0.02388888888888889 0.0
0.002777777777777778 0.024444444444444446 0.0
0.002777777777777778 0.025 0.0
0.002777777777777778 0.036111111111111115 0.0
0.002777777777777778 0.04722222222222222 0.0
0.002777777777777778 0.058333333333333334 0.0
0.002777777777777778 0.06944444444444445 0.0
0.002777777777777778 0.08055555555555556 0.0
0.002777777777777778 0.09166666666666667 0.0
0.002777777777777778 0.10277777777777777 0.0
0.002777777777777778 0.1138888888888889 0.0
0.002777777777777778 0.125 0.0
0.002777777777777778 0.12555555555555556 0.0
0.002777777777777778 0.12611111111111112 0.0
[...]
POINT_DATA 1353
SCALARS Temperatura float 1
LOOKUP_TABLE default
121.19190653900313
120.68255610240679
120.17732292249353
119.67580734378892
119.17762406946169
118.6822901089481
118.18917880190263
117.69745913533603
117.20601208781486
116.71326636274655
116.21702493956474
115.71346863103551
115.19800504519796
114.64309173568107
113.91162031045188
113.23125268727077
112.56680918702045
111.9122713272057
111.26394148273074
110.61947758881458
109.97720752360466
109.33592272902597
108.694807177843
97.54571630664631
93.50299266075497
92.31270058163686
91.90905451645241
91.77123041587568
91.68345621797727
91.52840639889106
91.03549255768806
89.69575849073823
89.62062758886378
89.54590189712827
89.47164242330686
89.39789244019839
89.32468257032384
89.25203465137834
89.17996421135527
89.10848175927363
89.03759328706943
121.22205434854304
120.71260005660609
120.20723668655683
119.70559706569115
119.20729657122233
118.7118556377992
118.2186507328568
117.72685706088278
117.23535951404776
116.74262265795328
116.24638441166597
115.74334601718226
115.22695897638823
114.68329255373807
113.99643088652437
113.31995363185986
112.65767344383487
112.00406772982116
111.35617878360122
110.71186476605412
110.06953425670659
109.42800207371884
108.78645089541463
97.61283965886363
93.57703083875748
92.38645479618523
91.98309078912837
91.84532193269408
91.75759544155288
91.60251811161898
91.11045580806577
89.76759726408075
89.69234755383359
89.61751523421279
89.54315835433879
89.46931757616437
89.39602159847038
89.32329108965402
89.2511410248191
89.17958174614016
89.10861924404185
121.25229637348775
120.74279785195077
120.2373491232947
119.73563442405353
119.23727870961254
118.74181109080826
118.24861881344697
117.75689238687859
117.26554452519976
116.77307744866168
116.27734616145739
115.77518256266339
115.26072088268033
114.72816308696534
114.06073275032583
113.39788160947943
112.7417676629845
112.09192201586569
111.44651548912596
110.80390698907593
110.16269293486829
109.52173634663305
108.88020173704038
97.65545129453598
93.64891509618279
92.45981619424455
92.05815512076282
91.9208233964499
91.83342547625101
91.67856983237655
91.19009978797409
89.84057236226606
89.76512287569433
89.69012667467024
89.61563217739003
89.54167177762238
89.46826830467417
89.39543905890369
89.32319759261243
89.25155396615865
89.18051430797611
121.28266153421784
120.7731500642556
120.26765895584865
119.76591703343979
119.26756699114534
118.7721517453923
118.27907603747708
117.78755630062994
117.2965473160274
116.80462304247872
116.30979239214528
115.80912215068616
115.29820663647264
114.7747906654733
114.1207722478207
113.46912161387161
112.82114373181534
112.17691973858871
111.53565118555981
110.89615402395955
110.25720567488008
109.61768059098401
108.97666401626743
97.67303644427304
93.71889846748726
92.53271621503829
92.13427342864517
91.99772813832722
91.9109577225843
91.75653353418869
91.27448356809437
89.91463930853504
89.83891902648915
89.76371201474943
89.68904830837252
89.61494532203584
89.54141609454287
89.46847307952441
89.39612846003081
89.32439266870037
89.25327258239926
121.31316432443154
120.80365954741593
120.29816370172709
119.79644084338989
119.2981556129621
118.80286961110114
118.31001129800951
117.81883225434838
117.32834334414851
116.83721714060732
116.3436410253945
115.84506949629824
115.33839387269904
114.82278072869597
114.17954759597433
113.53770690798524
112.89796668524676
112.26040937000305
111.6245271813767
110.98939993828475
110.35387806787848
109.7167419152933
109.0768696862716
97.66473681170362
93.787414182609
92.60503611882386
92.21149015165965
92.07602319230325
91.99021079864598
91.83635996655632
91.36370437778817
89.9897197959257
89.91367750389391
89.83823254278181
89.7633835937465
89.68912464976799
89.6154556331364
89.54238454212863
89.4699241773766
89.39808740221092
89.32688321090173
121.34381182070766
120.83432790550255
120.3288599700291
119.8272000747468
119.32903650377067
118.83395365894894
118.34140923057116
117.85069786299195
117.36089897619162
116.87080209780751
116.37880158805504
115.88279841149627
115.38064050691015
114.87201870687693
114.23827835452364
113.60546104631018
112.97391320774278
112.34360688688196
111.71409528384181
111.08453000976391
110.4537072262946
109.82015457341312
109.18232524253348
97.62932291363177
93.85509138400796
92.676599596604
92.28987128326563
92.15568789924482
92.07121173815128
91.91797676506364
91.4579007314955
90.06569594078903
89.9893163795595
89.91364027582198
89.83861422181016
89.76419810918027
89.69037829757097
89.61716300911908
89.54457124532524
89.47262225381297
89.40132940298321
121.37460649494501
120.86515463324321
120.35974316151808
119.85818726691666
119.36019940075684
118.86538998020923
118.37325056434142
117.88312544188447
117.39417228389412
116.90531058470194
116.41516178627046
115.92206176356832
115.42452835386663
114.92242434828901
114.29751502295792
113.67332441700721
113.04998818072504
112.42739427454711
111.8051131913692
111.18233395084889
110.55773810261624
109.92943452122555
109.29509556087649
97.56514979552145
93.92277901941483
92.74716170181557
92.36950890919793
92.2366918141685
92.15399778199202
92.00128560545888
91.55725733337512
90.14240058052633
90.0657334201326
89.98989056591041
89.91472931683565
89.84016579122401
89.7661801449438
89.69279694566343
89.62005116003435
89.5479741313993
89.47658650154152
121.40554751341304
120.89613702960172
120.39080722827872
119.88939330599524
119.39163195575948
118.89716199079176
118.40551252745163
117.91608257346645
117.42811479839055
116.94066693959806
116.45259481829581
115.96262813616632
115.46975960214306
114.97390519806963
114.35749821021344
113.74176421166531
113.12673177959275
112.51226468166512
111.89799646043724
111.28323992082463
110.66680786045453
110.04625376450926
109.41795144441308
97.47008799817218
93.99158057453491
92.81639315422447
92.45052761390946
92.31899174850739
92.23861891204513
92.08615810516555
91.66201260972655
90.21960086180236
90.14281898115213
90.06696764413905
89.99176394113974
89.91704940392991
89.84286404237717
89.76927239412973
89.69633774397592
89.6241096195544
89.55261872929746
121.43663143975735
120.92727032702005
120.42204456710598
119.92080745356205
119.42331986286922
118.92925067338082
118.43816926900625
117.9495328620102
117.46267302451517
116.97678911494577
116.49096799440477
116.00428837776099
115.51610007197507
115.0263496433371
114.418294198065
113.81096527747529
113.20435388493031
112.59835722416281
111.99274102166986
111.38708665159675
110.78066205398868
110.17227456101293
109.55462739219794
97.3414157773659
94.06290412307533
92.8838584789114
92.53309331859637
92.40252771238707
92.32514127858673
92.17243028552788
91.77246918847445
90.29697456607377
90.22039528115415
90.14505701629099
90.06981656402391
89.99489497340471
89.92043596528801
89.84656793301937
89.77339207924547
89.70098014519391
89.62937446497168
121.46785268073525
120.95854787358144
120.45344601229793
119.95241739547382
119.45524700315987
118.96163484131795
118.47119230988159
117.9834367466786
117.49778983637088
117.01359117365624
116.53014837093758
116.04685233574975
115.5633487784173
115.07962869576768
114.47986435290754
113.88093692111067
113.28283848241217
112.6855332002255
112.08895985295517
111.49305262493209
110.8977967378629
110.30334851065632
95.94483556074765
95.94483556074765
95.94483556074765
95.94483556074765
95.94483556074765
95.94483556074765
95.94483556074765
95.94483556074765
95.94483556074765
95.94483556074765
90.29965535504746
90.22446635444419
90.14904020778344
90.07375704325943
89.99889248652566
89.92464503539289
89.85115496411181
89.77851564281836
89.70678030346333
122.07666410593443
121.56904991554957
121.06808656872363
120.57385336158931
120.08648628268718
119.60619105244105
119.13326388067401
118.66812126128488
118.21134008423564
117.76370874893831
117.32628793874592
116.90047784894986
116.48809826588653
116.09152400508023
115.61228131233099
115.13693521245219
114.66612340964535
114.20052532158245
113.74087007670816
113.28794047975697
112.84256849213108
112.40561402858518
95.94483556074765
95.94483556074765
95.94483556074765
95.94483556074765
95.94483556074765
95.94483556074765
95.94483556074765
95.94483556074765
95.94483556074765
95.94483556074765
91.80971429459896
91.69680587125421
91.59004087714366
91.48906143263618
91.39358584888892
91.303396173343
91.2183292407612
91.1382707840078
91.0631516553389
122.6294220210549
122.12292320277186
121.6243874152612
121.13386840134486
120.65145050113341
120.17724654968386
119.71139357221394
119.25404500417692
118.80535761175132
118.36547067631705
117.93447452678808
117.51236471650876
117.09897385612
116.6938603725144
116.19696829583272
115.70169439389093
115.2078211656751
114.71510285540046
114.22325746765551
113.73195917912065
113.24083222077596
112.74944836321927
95.94483556074765
95.94483556074765
95.94483556074765
95.94483556074765
95.94483556074765
95.94483556074765
95.94483556074765
95.94483556074765
95.94483556074765
95.94483556074765
92.22442213380707
92.13758494941497
92.05216482229112
91.96834968251105
91.88628662504814
91.80608827718596
91.72783751911003
91.65159077985784
91.57738023415656
123.06630846804063
122.5601203555191
122.0617810979793
121.57129797691617
121.08867758682129
120.61392412548155
120.14703726017454
119.68800988614053
119.23682634783043
118.79346207151752
118.35788606242983
117.93006853875474
117.50999810541416
117.09771804894457
116.59205921077569
116.08831980599636
115.58655045767446
115.08681297695995
114.58918434189904
114.09376091775079
113.60066271777308
113.11003721400837
95.94483556074765
95.94483556074765
95.94483556074765
95.94483556074765
95.94483556074765
95.94483556074765
95.94483556074765
95.94483556074765
95.94483556074765
95.94483556074765
92.37705350214233
92.28986324337194
92.20464439024254
92.12133717332833
92.039896093515
91.96028701093374
91.88248497085199
91.80647265816216
91.73223935858576
123.38357518070087
122.87746454792573
122.37883274488873
121.88768172170816
121.40401074343266
120.92781658966055
120.45909386823223
119.99783545465299
119.5440330147405
119.09767745783549
118.65875897870116
118.22726599135956
117.80318139922059
117.38647264516916
116.87494202784245
116.36519466276664
115.85721235330459
115.35097294560198
114.8464487608345
114.34360482881975
113.84239693632398
113.34276957841355
95.94483556074765
95.94483556074765
95.94483556074765
95.94483556074765
95.94483556074765
95.94483556074765
95.94483556074765
95.94483556074765
95.94483556074765
95.94483556074765
92.42356491433955
92.33834024168544
92.25465298374888
92.17252322322499
92.09196556800237
92.01299031558102
91.93560431783095
91.85981159573583
91.78561375147623
123.5967368503789
123.09066621909659
122.59180311709825
122.10014986449215
121.61570635498114
121.13847002457632
120.66843578723561
120.20559591828861
119.74993987235518
119.30145404368123
118.86012152526632
118.42592203371021
117.99883245629897
117.57882918119984
117.06303225332832
116.54900139119377
116.03673576742675
115.52623572871448
115.01750334944735
114.51054308559351
114.00536254145987
113.5019733441288
95.94483556074765
95.94483556074765
95.94483556074765
95.94483556074765
95.94483556074765
95.94483556074765
95.94483556074765
95.94483556074765
95.94483556074765
95.94483556074765
92.43948515096271
92.35441120466682
92.27090717908803
92.18896594662621
92.10858202858573
92.0297511578867
91.95246995761651
91.87673571399607
91.80254622529465
123.71928785568235
123.21323866562037
122.71423780913668
122.2222875273178
121.73738768191104
121.25953575493483
120.7887268558546
120.32495374441035
119.86820687887167
119.41847449830503
118.97574273905116
118.53999575708283
118.11121573729541
117.68938242685886
117.17121850750385
116.65480034549196
116.1401236484898
115.62718368461792
115.11597508779255
114.60649161709102
114.09872585971435
113.59266887081219
95.94483556074765
95.94483556074765
95.94483556074765
95.94483556074765
95.94483556074765
95.94483556074765
95.94483556074765
95.94483556074765
95.94483556074765
95.94483556074765
92.44438720832638
92.35947716471381
92.27609935387831
92.19425446682673
92.11394255028996
92.03516317250823
91.95791554321262
91.88219859732699
91.80801105005476
123.75925715115432
123.25321472702731
122.7541682916116
122.26212015212694
121.7770703179759
121.29901650962582
120.8279541691313
120.3638764683363
119.90677430880295
119.45663630602084
119.01344875166768
118.57719555889128
118.1478582408798
117.72541610790591
117.20646221352519
116.6892485634761
116.17377201071615
115.66002956678985
115.14801851353529
114.63773654517705
114.12918194913063
113.62235383275947
95.94483556074765
95.94483556074765
95.94483556074765
95.94483556074765
95.94483556074765
95.94483556074765
95.94483556074765
95.94483556074765
95.94483556074765
95.94483556074765
92.4455355075471
92.36063645382714
92.2772737529736
92.19544504067588
92.11514825496984
92.03638153600961
91.95914315433122
91.88343146127778
91.80924485666236
123.71928785568305
123.21323866562108
122.71423780913732
122.22228752731841
121.73738768191157
121.25953575493529
120.78872685585505
120.32495374441085
119.86820687887221
119.41847449830563
118.97574273905177
118.53999575708346
118.11121573729605
117.68938242685951
117.17121850750452
116.6548003454926
116.14012364849042
115.62718368461846
115.11597508779307
114.60649161709156
114.0987258597149
113.59266887081277
95.94483556074765
95.94483556074765
95.94483556074765
95.94483556074765
95.94483556074765
95.94483556074765
95.94483556074765
95.94483556074765
95.94483556074765
95.94483556074765
92.44438720832721
92.3594771647147
92.2760993538792
92.19425446682764
92.1139425502909
92.0351631725092
91.95791554321359
91.88219859732797
91.80801105005573
123.59673685038001
123.0906662190977
122.59180311709936
122.1001498644932
121.61570635498221
121.13847002457734
120.66843578723656
120.20559591828956
119.74993987235607
119.3014540436821
118.86012152526722
118.42592203371115
117.99883245629991
117.57882918120086
117.06303225332933
116.54900139119478
116.03673576742776
115.5262357287155
115.01750334944836
114.51054308559453
114.0053625414609
113.50197334412977
95.94483556074765
95.94483556074765
95.94483556074765
95.94483556074765
95.94483556074765
95.94483556074765
95.94483556074765
95.94483556074765
95.94483556074765
95.94483556074765
92.43948515096493
92.35441120466905
92.27090717909032
92.18896594662854
92.10858202858805
92.029751157889
91.95246995761883
91.87673571399843
91.80254622529702
123.38357518070164
122.87746454792644
122.37883274488938
121.88768172170879
121.40401074343328
120.92781658966113
120.45909386823276
119.99783545465347
119.54403301474099
119.09767745783596
118.6587589787017
118.22726599136014
117.80318139922127
117.38647264516986
116.87494202784319
116.3651946627674
115.85721235330531
115.35097294560263
114.84644876083502
114.34360482882016
113.84239693632432
113.34276957841388
95.94483556074765
95.94483556074765
95.94483556074765
95.94483556074765
95.94483556074765
95.94483556074765
95.94483556074765
95.94483556074765
95.94483556074765
95.94483556074765
92.423564914345
92.33834024169104
92.25465298375455
92.17252322323064
92.09196556800802
92.01299031558662
91.93560431783642
91.85981159574115
91.7856137514815
123.0663084680412
122.56012035551971
122.06178109797997
121.57129797691687
121.088677586822
120.61392412548226
120.14703726017525
119.68800988614127
119.23682634783117
118.79346207151826
118.35788606243052
117.9300685387554
117.50999810541474
117.09771804894511
116.59205921077624
116.08831980599685
115.58655045767497
115.08681297696054
114.5891843418998
114.0937609177516
113.6006627177739
113.11003721400918
95.94483556074765
95.94483556074765
95.94483556074765
95.94483556074765
95.94483556074765
95.94483556074765
95.94483556074765
95.94483556074765
95.94483556074765
95.94483556074765
92.37705350214675
92.28986324337643
92.20464439024714
92.12133717333303
92.03989609351979
91.96028701093859
91.88248497085691
91.80647265816715
91.73223935859077
122.6294220210546
122.12292320277155
121.62438741526086
121.13386840134443
120.65145050113297
120.17724654968349
119.71139357221357
119.2540450041765
118.8053576117509
118.36547067631669
117.93447452678787
117.51236471650861
117.09897385611985
116.6938603725143
116.19696829583259
115.70169439389083
115.20782116567499
114.71510285540037
114.22325746765536
113.73195917912044
113.2408322207757
112.74944836321895
95.94483556074765
95.94483556074765
95.94483556074765
95.94483556074765
95.94483556074765
95.94483556074765
95.94483556074765
95.94483556074765
95.94483556074765
95.94483556074765
92.22442213381039
92.13758494941835
92.0521648222945
91.96834968251443
91.88628662505155
91.80608827718939
91.7278375191134
91.65159077986115
91.57738023415989
122.0766641059336
121.56904991554876
121.06808656872282
120.57385336158852
120.08648628268641
119.60619105244028
119.13326388067333
118.66812126128417
118.21134008423495
117.76370874893769
117.32628793874542
116.90047784894948
116.48809826588621
116.09152400507992
115.61228131233075
115.13693521245195
114.66612340964514
114.20052532158219
113.7408700767079
113.2879404797567
112.8425684921308
112.40561402858488
95.94483556074765
95.94483556074765
95.94483556074765
95.94483556074765
95.94483556074765
95.94483556074765
95.94483556074765
95.94483556074765
95.94483556074765
95.94483556074765
91.80971429460115
91.69680587125646
91.59004087714601
91.4890614326386
91.39358584889135
91.30339617334546
91.21832924076372
91.13827078401037
91.06315165534146
121.46785268073405
120.95854787358026
120.45344601229691
119.95241739547298
119.4552470031592
118.96163484131743
118.47119230988112
117.98343674667824
117.49778983637057
117.0135911736559
116.53014837093714
116.04685233574924
115.56334877841687
115.07962869576741
114.47986435290741
113.88093692111076
113.28283848241239
112.6855332002259
112.08895985295567
111.4930526249327
110.8977967378636
110.30334851065705
95.94483556074765
95.94483556074765
95.94483556074765
95.94483556074765
95.94483556074765
95.94483556074765
95.94483556074765
95.94483556074765
95.94483556074765
95.94483556074765
90.29965535505006
90.2244663544468
90.14904020778609
90.07375704326212
89.99889248652842
89.92464503539566
89.85115496411454
89.77851564282102
89.706780303466
121.43663143975606
120.92727032701882
120.42204456710499
119.92080745356118
119.4233198628687
118.92925067338031
118.43816926900574
117.94953286200978
117.46267302451483
116.97678911494533
116.49096799440439
116.00428837776046
115.5161000719746
115.02634964333683
114.41829419806486
113.81096527747533
113.20435388493057
112.59835722416322
111.9927410216704
111.38708665159743
110.78066205398932
110.17227456101365
109.55462739219865
97.34141577736857
94.06290412307509
92.88385847891135
92.53309331859792
92.40252771238747
92.32514127858764
92.17243028552875
91.77246918847321
90.29697456607624
90.22039528115664
90.14505701629355
90.06981656402651
89.99489497340736
89.92043596529066
89.84656793302197
89.77339207924808
89.70098014519654
89.62937446497425
121.40554751341172
120.89613702960035
120.39080722827775
119.88939330599439
119.39163195575891
118.89716199079129
118.40551252745118
117.91608257346601
117.42811479839011
116.94066693959775
116.45259481829534
115.96262813616585
115.4697596021426
114.97390519806942
114.35749821021331
113.74176421166538
113.12673177959297
112.51226468166551
111.89799646043775
111.28323992082525
110.66680786045528
110.04625376451003
109.41795144441386
97.47008799817486
93.99158057453471
92.81639315422461
92.45052761391105
92.31899174850786
92.23861891204596
92.08615810516652
91.66201260972525
90.21960086180489
90.14281898115459
90.06696764414156
89.99176394114221
89.91704940393247
89.8428640423797
89.76927239413226
89.69633774397839
89.62410961955688
89.5526187292999
121.37460649494368
120.86515463324196
120.359743161517
119.8581872669157
119.36019940075623
118.86538998020873
118.37325056434088
117.8831254418839
117.3941722838937
116.90531058470151
116.41516178626999
115.92206176356778
115.42452835386622
114.92242434828884
114.29751502295792