# vtk DataFile Version 2.0
Niestacjonarne zagadnienie cieplne - ogrzewanie wody w garnku stalowym
ASCII
DATASET UNSTRUCTURED_GRID
POINTS 1353 float
0.0 0.0 0.0
0.0 0.0015384615384615385 0.0
0.0 0.003076923076923077 0.0
0.0 0.004615384615384615 0.0
0.0 0.006153846153846154 0.0
0.0 0.007692307692307693 0.0
0.0 0.00923076923076923 0.0
0.0 0.010769230769230769 0.0
0.0 0.012307692307692308 0.0
0.0 0.013846153846153847 0.0
0.0 0.015384615384615385 0.0
0.0 0.016923076923076923 0.0
0.0 0.01846153846153846 0.0
0.0 0.02 0.0
0.0 0.020555555555555556 0.0
0.0 0.021111111111111112 0.0
0.0 0.021666666666666667 0.0
0.0 0.022222222222222223 0.0
0.0 0.02277777777777778 0.0
0.0 0.023333333333333334 0.0
0.0 0.02388888888888889 0.0
0.0 0.024444444444444446 0.0
0.0 0.025 0.0
0.0 0.036111111111111115 0.0
0.0 0.04722222222222222 0.0
0.0 0.058333333333333334 0.0
0.0 0.06944444444444445 0.0
0.0 0.08055555555555556 0.0
0.0 0.09166666666666667 0.0
0.0 0.10277777777777777 0.0
0.0 0.1138888888888889 0.0
0.0 0.125 0.0
0.0 0.12555555555555556 0.0
0.0 0.12611111111111112 0.0
0.0 0.12666666666666668 0.0
0.0 0.1272222222222222 0.0
0.0 0.12777777777777777 0.0
0.0 0.12833333333333333 0.0
0.0 0.1288888888888889 0.0
0.0 0.12944444444444445 0.0
0.0 0.13 0.0
5.555555555555556E-4 0.0 0.0
5.555555555555556E-4 0.0015384615384615385 0.0
5.555555555555556E-4 0.003076923076923077 0.0
5.555555555555556E-4 0.004615384615384615 0.0
5.555555555555556E-4 0.006153846153846154 0.0
5.555555555555556E-4 0.007692307692307693 0.0
5.555555555555556E-4 0.00923076923076923 0.0
5.555555555555556E-4 0.010769230769230769 0.0
5.555555555555556E-4 0.012307692307692308 0.0
5.555555555555556E-4 0.013846153846153847 0.0
5.555555555555556E-4 0.015384615384615385 0.0
5.555555555555556E-4 0.016923076923076923 0.0
5.555555555555556E-4 0.01846153846153846 0.0
5.555555555555556E-4 0.02 0.0
5.555555555555556E-4 0.020555555555555556 0.0
5.555555555555556E-4 0.021111111111111112 0.0
5.555555555555556E-4 0.021666666666666667 0.0
5.555555555555556E-4 0.022222222222222223 0.0
5.555555555555556E-4 0.02277777777777778 0.0
5.555555555555556E-4 0.023333333333333334 0.0
5.555555555555556E-4 0.02388888888888889 0.0
5.555555555555556E-4 0.024444444444444446 0.0
5.555555555555556E-4 0.025 0.0
5.555555555555556E-4 0.036111111111111115 0.0
5.555555555555556E-4 0.04722222222222222 0.0
5.555555555555556E-4 0.058333333333333334 0.0
5.555555555555556E-4 0.06944444444444445 0.0
5.555555555555556E-4 0.08055555555555556 0.0
5.555555555555556E-4 0.09166666666666667 0.0
5.555555555555556E-4 0.10277777777777777 0.0
5.555555555555556E-4 0.1138888888888889 0.0
5.555555555555556E-4 0.125 0.0
5.555555555555556E-4 0.12555555555555556 0.0
5.555555555555556E-4 0.12611111111111112 0.0
5.555555555555556E-4 0.12666666666666668 0.0
5.555555555555556E-4 0.1272222222222222 0.0
5.555555555555556E-4 0.12777777777777777 0.0
5.555555555555556E-4 0.12833333333333333 0.0
5.555555555555556E-4 0.1288888888888889 0.0
5.555555555555556E-4 0.12944444444444445 0.0
5.555555555555556E-4 0.13 0.0
0.0011111111111111111 0.0 0.0
0.0011111111111111111 0.0015384615384615385 0.0
0.0011111111111111111 0.003076923076923077 0.0
0.0011111111111111111 0.004615384615384615 0.0
0.0011111111111111111 0.006153846153846154 0.0
0.0011111111111111111 0.007692307692307693 0.0
0.0011111111111111111 0.00923076923076923 0.0
0.0011111111111111111 0.010769230769230769 0.0
0.0011111111111111111 0.012307692307692308 0.0
0.0011111111111111111 0.013846153846153847 0.0
0.0011111111111111111 0.015384615384615385 0.0
0.0011111111111111111 0.016923076923076923 0.0
0.0011111111111111111 0.01846153846153846 0.0
0.0011111111111111111 0.02 0.0
0.0011111111111111111 0.020555555555555556 0.0
0.0011111111111111111 0.021111111111111112 0.0
0.0011111111111111111 0.021666666666666667 0.0
0.0011111111111111111 0.022222222222222223 0.0
0.0011111111111111111 0.02277777777777778 0.0
0.0011111111111111111 0.023333333333333334 0.0
0.0011111111111111111 0.02388888888888889 0.0
0.0011111111111111111 0.024444444444444446 0.0
0.0011111111111111111 0.025 0.0
0.0011111111111111111 0.036111111111111115 0.0
0.0011111111111111111 0.04722222222222222 0.0
0.0011111111111111111 0.058333333333333334 0.0
0.0011111111111111111 0.06944444444444445 0.0
0.0011111111111111111 0.08055555555555556 0.0
0.0011111111111111111 0.09166666666666667 0.0
0.0011111111111111111 0.10277777777777777 0.0
0.0011111111111111111 0.1138888888888889 0.0
0.0011111111111111111 0.125 0.0
0.0011111111111111111 0.12555555555555556 0.0
0.0011111111111111111 0.12611111111111112 0.0
0.0011111111111111111 0.12666666666666668 0.0
0.0011111111111111111 0.1272222222222222 0.0
0.0011111111111111111 0.12777777777777777 0.0
0.0011111111111111111 0.12833333333333333 0.0
0.0011111111111111111 0.1288888888888889 0.0
0.0011111111111111111 0.12944444444444445 0.0
0.0011111111111111111 0.13 0.0
0.0016666666666666666 0.0 0.0
0.0016666666666666666 0.0015384615384615385 0.0
0.0016666666666666666 0.003076923076923077 0.0
0.0016666666666666666 0.004615384615384615 0.0
0.0016666666666666666 0.006153846153846154 0.0
0.0016666666666666666 0.007692307692307693 0.0
0.0016666666666666666 0.00923076923076923 0.0
0.0016666666666666666 0.010769230769230769 0.0
0.0016666666666666666 0.012307692307692308 0.0
0.0016666666666666666 0.013846153846153847 0.0
0.0016666666666666666 0.015384615384615385 0.0
0.0016666666666666666 0.016923076923076923 0.0
0.0016666666666666666 0.01846153846153846 0.0
0.0016666666666666666 0.02 0.0
0.0016666666666666666 0.020555555555555556 0.0
0.0016666666666666666 0.021111111111111112 0.0
0.0016666666666666666 0.021666666666666667 0.0
0.0016666666666666666 0.022222222222222223 0.0
0.0016666666666666666 0.02277777777777778 0.0
0.0016666666666666666 0.023333333333333334 0.0
0.0016666666666666666 0.02388888888888889 0.0
0.0016666666666666666 0.024444444444444446 0.0
0.0016666666666666666 0.025 0.0
0.0016666666666666666 0.036111111111111115 0.0
0.0016666666666666666 0.04722222222222222 0.0
0.0016666666666666666 0.058333333333333334 0.0
0.0016666666666666666 0.06944444444444445 0.0
0.0016666666666666666 0.08055555555555556 0.0
0.0016666666666666666 0.09166666666666667 0.0
0.0016666666666666666 0.10277777777777777 0.0
0.0016666666666666666 0.1138888888888889 0.0
0.0016666666666666666 0.125 0.0
0.0016666666666666666 0.12555555555555556 0.0
0.0016666666666666666 0.12611111111111112 0.0
0.0016666666666666666 0.12666666666666668 0.0
0.0016666666666666666 0.1272222222222222 0.0
0.0016666666666666666 0.12777777777777777 0.0
0.0016666666666666666 0.12833333333333333 0.0
0.0016666666666666666 0.1288888888888889 0.0
0.0016666666666666666 0.12944444444444445 0.0
0.0016666666666666666 0.13 0.0
0.0022222222222222222 0.0 0.0
0.0022222222222222222 0.0015384615384615385 0.0
0.0022222222222222222 0.003076923076923077 0.0
0.0022222222222222222 0.004615384615384615 0.0
0.0022222222222222222 0.006153846153846154 0.0
0.0022222222222222222 0.007692307692307693 0.0
0.0022222222222222222 0.00923076923076923 0.0
0.0022222222222222222 0.010769230769230769 0.0
0.0022222222222222222 0.012307692307692308 0.0
0.0022222222222222222 0.013846153846153847 0.0
0.0022222222222222222 0.015384615384615385 0.0
0.0022222222222222222 0.016923076923076923 0.0
0.0022222222222222222 0.01846153846153846 0.0
0.0022222222222222222 0.02 0.0
0.0022222222222222222 0.020555555555555556 0.0
0.0022222222222222222 0.021111111111111112 0.0
0.0022222222222222222 0.021666666666666667 0.0
0.0022222222222222222 0.022222222222222223 0.0
0.0022222222222222222 0.02277777777777778 0.0
0.0022222222222222222 0.023333333333333334 0.0
0.0022222222222222222 0.02388888888888889 0.0
0.0022222222222222222 0.024444444444444446 0.0
0.0022222222222222222 0.025 0.0
0.0022222222222222222 0.036111111111111115 0.0
0.0022222222222222222 0.04722222222222222 0.0
0.0022222222222222222 0.058333333333333334 0.0
0.0022222222222222222 0.06944444444444445 0.0
0.0022222222222222222 0.08055555555555556 0.0
0.0022222222222222222 0.09166666666666667 0.0
0.0022222222222222222 0.10277777777777777 0.0
0.0022222222222222222 0.1138888888888889 0.0
0.0022222222222222222 0.125 0.0
0.0022222222222222222 0.12555555555555556 0.0
0.0022222222222222222 0.12611111111111112 0.0
0.0022222222222222222 0.12666666666666668 0.0
0.0022222222222222222 0.1272222222222222 0.0
0.0022222222222222222 0.12777777777777777 0.0
0.0022222222222222222 0.12833333333333333 0.0
0.0022222222222222222 0.1288888888888889 0.0
0.0022222222222222222 0.12944444444444445 0.0
0.0022222222222222222 0.13 0.0
0.002777777777777778 0.0 0.0
0.002777777777777778 0.0015384615384615385 0.0
0.002777777777777778 0.003076923076923077 0.0
0.002777777777777778 0.004615384615384615 0.0
0.002777777777777778 0.006153846153846154 0.0
0.002777777777777778 0.007692307692307693 0.0
0.002777777777777778 0.00923076923076923 0.0
0.002777777777777778 0.010769230769230769 0.0
0.002777777777777778 0.012307692307692308 0.0
0.002777777777777778 0.013846153846153847 0.0
0.002777777777777778 0.015384615384615385 0.0
0.002777777777777778 0.016923076923076923 0.0
0.002777777777777778 0.01846153846153846 0.0
0.002777777777777778 0.02 0.0
0.002777777777777778 0.020555555555555556 0.0
0.002777777777777778 0.021111111111111112 0.0
0.002777777777777778 0.021666666666666667 0.0
0.002777777777777778 0.022222222222222223 0.0
0.002777777777777778 0.02277777777777778 0.0
0.002777777777777778 0.023333333333333334 0.0
0.002777777777777778 0.02388888888888889 0.0
0.002777777777777778 0.024444444444444446 0.0
0.002777777777777778 0.025 0.0
0.002777777777777778 0.036111111111111115 0.0
0.002777777777777778 0.04722222222222222 0.0
0.002777777777777778 0.058333333333333334 0.0
0.002777777777777778 0.06944444444444445 0.0
0.002777777777777778 0.08055555555555556 0.0
0.002777777777777778 0.09166666666666667 0.0
0.002777777777777778 0.10277777777777777 0.0
0.002777777777777778 0.1138888888888889 0.0
0.002777777777777778 0.125 0.0
0.002777777777777778 0.12555555555555556 0.0
0.002777777777777778 0.12611111111111112 0.0
[...]
POINT_DATA 1353
SCALARS Temperatura float 1
LOOKUP_TABLE default
74.20464334533904
73.65762658784789
73.116859807114
72.58198411095755
72.05268455643686
71.52858427002413
71.00920889327179
70.49394414770435
69.98198098310624
69.47221693370446
68.96314747781186
68.45233869926106
67.93681381019299
67.40195651097694
66.71713019687103
66.05831494193534
65.40761237841475
64.76174001126513
64.11858798169725
63.4767465382471
62.83518091418047
62.19315335067168
61.55021838371989
50.283717492402715
46.19123047111458
44.988363114939965
44.58268367952967
44.45181329515198
44.39054930962776
44.31579698375449
44.09480627156184
43.50496822904519
43.474188688967466
43.444001880546786
43.41449299120889
43.38573705864326
43.357798275565706
43.33072948534132
43.304571837793254
43.279354568035615
43.25509486538237
74.22080880363679
73.67367616429108
73.13276610196492
72.59775201424522
72.0683192745591
71.54409378621253
71.02460338294838
70.50923767481031
69.99719054273098
69.48737875336485
68.97826703743705
68.46768389641507
67.95167767171696
67.42242683975348
66.75976364881724
66.10270813360927
65.45289851691476
64.80729842064991
64.16416293332753
63.52217321302211
62.88032176553697
62.23786635797628
61.59434350017149
50.302604228729116
46.21718913875248
45.01402108512055
44.608628065556395
44.47780959995563
44.416575998814295
44.34180826465556
44.12123489632944
43.52979192870492
43.498932497353756
43.46867106009258
43.439093342540176
43.41027480363696
43.38227994721973
43.355161835262074
43.32896176399622
43.30370905967311
43.27942095905882
74.23707259484053
73.6898820748327
73.14886855434753
72.6137562469565
72.08423897830612
71.55994943378222
71.0404229597038
70.52505922632656
70.01306908888779
69.5033922185204
68.99455742935348
68.48446569027
67.9695155994027
67.44593311386298
66.79309138945598
66.14294374400896
65.49630307309499
64.85265824516736
64.21081363783941
63.569673866581795
62.92828587437637
62.285881421860964
61.64193285629564
50.297157485217845
46.24158791356146
45.03987174882568
44.636199080446225
44.50579399761214
44.4447809687361
44.37011334689182
44.15125801395465
43.55619254198625
43.52515575709491
43.49473165191091
43.46500740198484
43.436059567014475
43.40795343135586
43.38074258219096
43.35446865347582
43.329161173891535
43.3048374810256
74.25346426930855
73.70624554891948
73.16516661635075
72.62999529100895
72.10044128846214
71.57614796118544
71.05666292294944
70.54140280940625
70.02960461087203
69.52025067386788
69.01195596145725
68.50275126216886
67.9897788266331
67.47103285098115
66.82525426148725
66.18106845668277
65.53886037806824
64.89838501068544
64.2589391566707
63.61961261968916
62.9794755708636
62.33767571134449
61.693543131172206
50.266865490135324
46.26468224662927
45.06584655983477
44.66542322350358
44.53576179858248
44.47517211161183
44.400700116494676
44.184904754448475
43.58415916945206
43.55284576613189
43.522169492875726
43.49221992003291
43.4630753455399
43.4348022244963
43.407454901416365
43.38107548894335
43.355693797500095
43.33132730007931
74.26999936330543
73.72277052249136
73.18165901092952
72.64646653418995
72.11692222761188
71.59268386349946
71.0733157010104
70.55825748211194
70.04678130390279
69.53792824913864
69.03041531847298
68.52248448542231
68.01194717687359
67.49752600447526
66.85774753904117
66.2190947074728
65.5816549579119
64.94517613571523
64.30907498541306
63.672518669628296
63.03451876493425
62.394037037700755
61.75013040524291
50.21087385090468
46.28690926229542
45.09182632635613
44.696345484711934
44.567703051024445
44.50776155761472
44.433546312136166
44.22222176345247
43.61367229182761
43.58197993249798
43.55095957647522
43.52070419841324
43.49129433992854
43.462797815045306
43.43526982809327
43.40875303800195
43.38327757390739
43.3588610426817
74.28668639893378
73.73946009925726
73.19834401642265
72.66316618357291
72.1336762426583
71.60954950666013
71.09037079062222
70.57560833114024
70.06457742792334
69.55638956412118
69.04988147479317
68.54354053334534
68.03568559749729
67.52533975290106
66.89116049349147
66.25791106121562
65.6255070507175
64.99364277992369
64.3617502225937
63.72898045429501
63.09420261663708
62.45605247829578
61.81310277914204
50.12795667206822
46.30890382366634
45.11763371905956
44.72903235435771
44.60160131774935
44.54256638637037
44.468618757639916
44.26327400129479
43.6447033795222
43.61252501796032
43.581065220357445
43.55042150869449
43.52067659693023
43.49189945839766
43.46414606542674
43.43745971547946
43.4118708051733
43.38739700935402
74.30352968316332
73.75631567670096
73.2152191479384
72.68008928700046
72.15069623682868
71.62673522186638
71.1078149578441
70.59343677876934
70.0829657632387
69.57559262903743
69.07028710672715
68.56578086493829
68.06076535292947
67.55440715827173
66.92572968122705
66.29793875124352
65.67086576978495
65.04418250964515
64.4173407710052
63.789495641147525
63.159352237903406
62.52507612913229
61.884410621931636
50.0164709373726
46.331522823288296
45.14302208311315
44.76357631603735
44.63743184814734
44.579609676250804
44.5058722618806
44.30814585398575
43.67721444009607
43.64443531483239
43.612436541912814
43.58132024425231
43.55116991999507
43.5220538177005
43.49402972003557
43.46714141998612
43.44141935700797
43.41688110287225
74.32053059014858
73.77333684150227
73.23228089414306
72.69722972862519
72.16797362403528
71.64422942570341
71.12563247325674
70.61172091514432
70.10191455797572
69.59548961809153
69.09155539511005
68.58907162548319
68.08701247868756
67.58464483873362
66.96151754711677
66.33933189870115
65.7179007425203
65.09692579580441
64.47594161585866
63.854222118191196
63.23059042370702
62.60261379401442
61.966700306330445
49.874286237726594
46.355880316908674
45.16765961678767
44.80010217535781
44.675159007759525
44.618921948743605
44.545248170391176
44.356942496003235
43.711157815720384
43.67764783993031
43.64500483830965
43.61333899427361
43.58270901848137
43.553194398736146
43.524853973135336
43.497731387945535
43.47185661298323
43.447246814265085
74.33768824448119
73.79052147741689
73.24952458399373
72.71458022000023
72.18549839834382
71.6620187636652
71.14380536224054
70.63043593421249
70.1213883689728
69.6160279635112
69.11360450447658
68.61328713962521
68.11428002215658
67.61595082878607
66.99848144067717
66.38207311175877
65.76656604766202
65.15174051590488
64.53728742230244
63.92275777227742
63.307431300237866
62.69019528213937
62.06357560555437
49.69867643727449
46.38339782716345
45.191107421340604
44.83877576243454
44.7147327810005
44.660543011770486
44.58667284115067
44.40979032968558
43.746480707052974
43.7120082349783
43.67872333846219
43.646400864314096
43.61521396328588
43.585240756603895
43.556538790473454
43.52915014471884
43.50310354306776
43.47841532665055
74.35499994453887
73.80786592333287
73.26694434973003
72.73213230744851
72.20325921549569
71.68008826944917
71.162313675996
70.6495546076139
70.14134885599053
69.6371517428049
69.1363506014762
68.63830862008469
68.14243367019925
67.64820753914564
67.0365125795866
66.42603374609575
65.81666238294846
65.20828257590176
64.6007808158801
63.994072319835865
63.38816119337168
62.78326340770461
46.823706066582474
46.823706066582474
46.823706066582474
46.823706066582474
46.823706066582474
46.823706066582474
46.823706066582474
46.823706066582474
46.823706066582474
46.823706066582474
43.747762995231746
43.71349296711815
43.68040864291624
43.64858801364999
43.6180979625788
43.588990860906044
43.561305660109134
43.53506895996973
43.510295801808454
74.70469684496275
74.15871772637364
73.62073892677957
73.09081895400926
72.56905607821282
72.05559771774675
71.55065577916145
71.05452909531672
70.56763432768464
70.09054686481232
69.62405286861376
69.16921351325902
68.72744823536817
68.30066239682654
67.78326349211402
67.26981170957606
66.76082693003836
66.25685997009224
65.75849737530207
65.26636229045674
64.78110672032574
64.30338707777754
46.823706066582474
46.823706066582474
46.823706066582474
46.823706066582474
46.823706066582474
46.823706066582474
46.823706066582474
46.823706066582474
46.823706066582474
46.823706066582474
44.42839453993113
44.37436910193751
44.32460596960105
44.27895312800122
44.23728501547557
44.199501402847424
44.16552549100684
44.13530240749312
44.10879814025766
75.03428715979004
74.489106394742
73.95297486418694
73.4259352632531
72.90805335337124
72.39941666270904
71.90013161283831
71.41031811251449
70.93010017307216
70.45959044856316
69.99886584815593
69.54793020557022
69.10665672721169
68.67469510163308
68.1454528915576
67.61836675223962
67.093262807086
66.56994518476343
66.04819002446827
65.52774001490957
65.00830064579048
64.48954032504774
46.823706066582474
46.823706066582474
46.823706066582474
46.823706066582474
46.823706066582474
46.823706066582474
46.823706066582474
46.823706066582474
46.823706066582474
46.823706066582474
44.61039170759652
44.56862543494132
44.52892946238625
44.491386882687245
44.456064020643126
44.42301210399411
44.392268846438505
44.36385965550474
44.337798478446324
75.29742752080162
74.7524656789466
74.21654588616136
73.68967674596215
73.1718666835155
72.66312262730668
72.16344834927433
71.67284268476867
71.19129805810167
70.718800072174
70.2553294176252
69.80086817606993
69.35541432525282
68.91901187475794
68.38445563927255
67.8523193833339
67.32264599444159
66.79548720721327
66.27090669350322
65.74898328100575
65.22981404900324
64.71351677986392
46.823706066582474
46.823706066582474
46.823706066582474
46.823706066582474
46.823706066582474
46.823706066582474
46.823706066582474
46.823706066582474
46.823706066582474
46.823706066582474
44.67780906157767
44.6357065889424
44.59595412196466
44.558522671888426
44.52338938044493
44.4905365124277
44.45995060277819
44.43162181741955
44.405543510677475
75.48840998407252
74.94349759730221
74.40740982668513
73.88015116657228
73.36172435633048
72.85213053451581
72.35136948497068
71.8594399909273
71.37634027135478
70.902068380859
70.43662228114094
69.97999896187918
69.5321912784731
69.0931796852794
68.55513476618506
68.01941013651728
67.48599245189362
66.9548652106354
66.42600751873717
65.89939271449188
65.37498688892451
64.85274740977088
46.823706066582474
46.823706066582474
46.823706066582474
46.823706066582474
46.823706066582474
46.823706066582474
46.823706066582474
46.823706066582474
46.823706066582474
46.823706066582474
44.698007437833326
44.65680647195813
44.617754566581894
44.58085968458034
44.54612734730272
44.51356108572312
44.483162803819866
44.454933046615785
44.42887118371396
75.6164207059173
75.07153265883936
74.53530695604103
74.00774836124587
73.48886004626922
72.97864356723694
72.47709881435878
71.9842239184205
71.50001510106644
71.02446647340663
70.55756983121455
70.0993145960838
69.64968829353595
69.20867850029971
68.66804771523384
68.1297313412467
67.59373010790685
67.06004568266255
66.5286811104891
65.999641328586
65.47293375909702
64.948568965059
46.823706066582474
46.823706066582474
46.823706066582474
46.823706066582474
46.823706066582474
46.823706066582474
46.823706066582474
46.823706066582474
46.823706066582474
46.823706066582474
44.70491278721091
44.66376551187136
44.62478504673336
44.5879666920021
44.55330647457379
44.52080096800912
44.49044715229899
44.462242312027946
44.43618396749308
75.68987838822822
75.1450031937603
74.60869490844377
74.08095820775445
73.56179617724558
73.05121031085102
72.5492005145473
72.05576512214698
71.57090093162809
71.09460326950942
70.62686608294139
70.16768203278016
69.71704248460725
69.27493710341484
68.73288973877656
68.19314453556402
67.65569925215236
67.12055128744338
66.58769752504749
66.05713414211031
65.52885637655518
65.0028582505724
46.823706066582474
46.823706066582474
46.823706066582474
46.823706066582474
46.823706066582474
46.823706066582474
46.823706066582474
46.823706066582474
46.823706066582474
46.823706066582474
44.707014198071626
44.665940177892615
44.6270156711048
44.59023966137212
44.5556108210365
44.52312758206865
44.49278818974371
44.46459074093678
44.438533209673665
75.71381205041581
75.1689408728051
74.6326051913754
74.1048097229619
73.58555764630022
73.07485060807183
72.57268872977936
72.0790706121605
71.59399333209707
71.1174524256833
70.64944185254441
70.18995394720363
69.73897940177139
69.29650743117324
68.75398420150397
68.21376013495487
67.6758339148834
67.14020434825069
66.60687045515593
66.07583158200403
65.54708754389195
65.02063880033246
46.823706066582474
46.823706066582474
46.823706066582474
46.823706066582474
46.823706066582474
46.823706066582474
46.823706066582474
46.823706066582474
46.823706066582474
46.823706066582474
44.7075059624866
44.66643573493935
44.627517181642155
44.59074784787907
44.556125400338644
44.523647583417606
44.49331218676584
44.465117022425424
44.43905990974659
75.68987838822865
75.14500319376073
74.60869490844416
74.08095820775483
73.56179617724591
73.05121031085129
72.54920051454755
72.05576512214729
71.57090093162842
71.09460326950976
70.62686608294173
70.16768203278053
69.71704248460767
69.27493710341527
68.732889738777
68.19314453556443
67.65569925215277
67.12055128744376
66.58769752504787
66.05713414211068
65.52885637655555
65.00285825057279
46.823706066582474
46.823706066582474
46.823706066582474
46.823706066582474
46.823706066582474
46.823706066582474
46.823706066582474
46.823706066582474
46.823706066582474
46.823706066582474
44.70701419807204
44.66594017789305
44.62701567110524
44.590239661372564
44.555610821036964
44.52312758206913
44.49278818974419
44.46459074093725
44.43853320967414
75.61642070591796
75.07153265884003
74.53530695604171
74.00774836124653
73.48886004626988
72.9786435672376
72.47709881435941
71.9842239184211
71.50001510106702
71.02446647340722
70.55756983121513
70.0993145960844
69.64968829353653
69.20867850030035
68.66804771523448
68.12973134124734
67.59373010790748
67.06004568266316
66.5286811104897
65.99964132858662
65.47293375909764
64.9485689650596
46.823706066582474
46.823706066582474
46.823706066582474
46.823706066582474
46.823706066582474
46.823706066582474
46.823706066582474
46.823706066582474
46.823706066582474
46.823706066582474
44.704912787211896
44.66376551187237
44.624785046734395
44.58796669200316
44.553306474574846
44.52080096801017
44.49044715230006
44.462242312029026
44.436183967494166
75.48840998407302
74.94349759730268
74.40740982668557
73.8801511665727
73.36172435633091
72.85213053451622
72.35136948497104
71.85943999092765
71.37634027135512
70.90206838085936
70.43662228114133
69.97999896187959
69.53219127847358
69.09317968527986
68.55513476618556
68.01941013651778
67.4859924518941
66.95486521063587
66.42600751873756
65.89939271449221
65.37498688892481
64.85274740977117
46.823706066582474
46.823706066582474
46.823706066582474
46.823706066582474
46.823706066582474
46.823706066582474
46.823706066582474
46.823706066582474
46.823706066582474
46.823706066582474
44.69800743783597
44.65680647196083
44.61775456658464
44.58085968458308
44.54612734730546
44.513561085725826
44.48316280382251
44.45493304661836
44.42887118371651
75.29742752080193
74.75246567894695
74.21654588616175
73.68967674596259
73.17186668351594
72.66312262730712
72.1634483492748
71.67284268476914
71.19129805810218
70.7188000721745
70.25532941762569
69.8008681760704
69.35541432525325
68.91901187475835
68.38445563927294
67.85231938333426
67.32264599444196
66.79548720721368
66.2709066935037
65.74898328100628
65.22981404900375
64.7135167798644
46.823706066582474
46.823706066582474
46.823706066582474
46.823706066582474
46.823706066582474
46.823706066582474
46.823706066582474
46.823706066582474
46.823706066582474
46.823706066582474
44.6778090615798
44.63570658894457
44.59595412196687
44.558522671890685
44.523389380447234
44.490536512430026
44.459950602780545
44.43162181742194
44.405543510679884
75.03428715978987
74.48910639474182
73.95297486418677
73.42593526325288
72.90805335337103
72.39941666270886
71.90013161283812
71.4103181125143
70.93010017307196
70.459590448563
69.99886584815583
69.54793020557017
69.10665672721164
68.67469510163306
68.1454528915576
67.61836675223965
67.09326280708605
66.5699451847635
66.0481900244683
65.52774001490958
65.0083006457905
64.48954032504774
46.823706066582474
46.823706066582474
46.823706066582474
46.823706066582474
46.823706066582474
46.823706066582474
46.823706066582474
46.823706066582474
46.823706066582474
46.823706066582474
44.61039170759815
44.56862543494297
44.52892946238791
44.491386882688886
44.45606402064477
44.42301210399576
44.392268846440125
44.36385965550634
44.33779847844794
74.70469684496223
74.15871772637313
73.62073892677907
73.09081895400878
72.56905607821234
72.05559771774628
71.550655779161
71.05452909531627
70.56763432768422
70.09054686481196
69.62405286861346
69.16921351325881
68.72744823536797
68.30066239682635
67.78326349211387
67.26981170957592
66.76082693003823
66.25685997009208
65.75849737530191
65.26636229045656
64.78110672032552
64.3033870777773
46.823706066582474
46.823706066582474
46.823706066582474
46.823706066582474
46.823706066582474
46.823706066582474
46.823706066582474
46.823706066582474
46.823706066582474
46.823706066582474
44.42839453993221
44.37436910193861
44.32460596960218
44.27895312800238
44.23728501547673
44.19950140284859
44.16552549100801
44.13530240749431
44.10879814025884
74.35499994453815
73.80786592333214
73.2669443497294
72.73213230744797
72.20325921549527
71.68008826944883
71.1623136759957
70.64955460761362
70.14134885599027
69.63715174280463
69.13635060147588
68.63830862008436
68.14243367019898
67.64820753914542
67.03651257958647
66.42603374609575
65.81666238294856
65.20828257590198
64.60078081588038
63.99407231983624
63.388161193372106
62.783263407705064
46.823706066582474
46.823706066582474
46.823706066582474
46.823706066582474
46.823706066582474
46.823706066582474
46.823706066582474
46.823706066582474
46.823706066582474
46.823706066582474
43.74776299523291
43.713492967119336
43.68040864291744
43.648588013651214
43.61809796258006
43.58899086090731
43.56130566011038
43.53506895997095
43.510295801809676
74.33768824448045
73.79052147741616
73.24952458399314
72.71458021999972
72.18549839834347
71.66201876366486
71.14380536224027
70.63043593421224
70.1213883689725
69.6160279635109
69.1136045044763
68.61328713962486
68.11428002215628
67.61595082878591
66.99848144067707
66.38207311175877
65.76656604766212
65.15174051590506
64.53728742230274
63.922757772277805
63.30743130023823
62.6901952821398
62.0635756055548
49.698676437275694
46.383397827163364
45.19110742134051
44.8387757624354
44.71473278100076
44.66054301177089
44.58667284115112
44.40979032968492
43.7464807070541
43.71200823497943
43.678723338463364
43.64640086431528
43.6152139632871
43.5852407566051
43.556538790474654
43.529150144720035
43.503103543068974
43.478415326651735
74.32053059014785
73.77333684150153
73.23228089414249
72.69722972862466
72.1679736240349
71.6442294257031
71.12563247325647
70.61172091514408
70.10191455797532
69.59548961809128
69.09155539510971
68.58907162548287
68.0870124786873
67.58464483873345
66.96151754711673
66.33933189870118
65.7179007425204
65.0969257958046
64.47594161585897
63.85422211819155
63.23059042370744
62.60261379401486
61.966700306330914
49.8742862377278
46.355880316908625
45.16765961678763
44.80010217535863
44.67515900775983
44.61892194874401
44.545248170391645
44.35694249600261
43.71115781572153
43.67764783993145
43.6450048383108
43.613338994274784
43.58270901848255
43.553194398737304
43.5248539731365
43.4977313879467
43.4718566129844
43.447246814266215
74.30352968316258
73.75631567670028
73.21521914793779
72.68008928699994
72.15069623682827
71.62673522186608
71.10781495784376
70.593436778769
70.08296576323832
69.5755926290371
69.07028710672684
68.56578086493802
68.06076535292918
67.55440715827162
66.92572968122704
66.29793875124354
65.67086576978507
65.04418250964535
64.41734077100548
63.78949564114789
63.159352237903796
62.525076129132756
61.88441062193215
50.01647093737386
46.331522823288324
45.14302208311316
44.76357631603823
44.63743184814769
44.57960967625119
44.505872261881095
44.30814585398511
43.677214440097224
43.64443531483355
43.61243654191395