# vtk DataFile Version 2.0
Niestacjonarne zagadnienie cieplne - ogrzewanie wody w garnku stalowym
ASCII
DATASET UNSTRUCTURED_GRID
POINTS 1353 float
0.0 0.0 0.0
0.0 0.0015384615384615385 0.0
0.0 0.003076923076923077 0.0
0.0 0.004615384615384615 0.0
0.0 0.006153846153846154 0.0
0.0 0.007692307692307693 0.0
0.0 0.00923076923076923 0.0
0.0 0.010769230769230769 0.0
0.0 0.012307692307692308 0.0
0.0 0.013846153846153847 0.0
0.0 0.015384615384615385 0.0
0.0 0.016923076923076923 0.0
0.0 0.01846153846153846 0.0
0.0 0.02 0.0
0.0 0.020555555555555556 0.0
0.0 0.021111111111111112 0.0
0.0 0.021666666666666667 0.0
0.0 0.022222222222222223 0.0
0.0 0.02277777777777778 0.0
0.0 0.023333333333333334 0.0
0.0 0.02388888888888889 0.0
0.0 0.024444444444444446 0.0
0.0 0.025 0.0
0.0 0.036111111111111115 0.0
0.0 0.04722222222222222 0.0
0.0 0.058333333333333334 0.0
0.0 0.06944444444444445 0.0
0.0 0.08055555555555556 0.0
0.0 0.09166666666666667 0.0
0.0 0.10277777777777777 0.0
0.0 0.1138888888888889 0.0
0.0 0.125 0.0
0.0 0.12555555555555556 0.0
0.0 0.12611111111111112 0.0
0.0 0.12666666666666668 0.0
0.0 0.1272222222222222 0.0
0.0 0.12777777777777777 0.0
0.0 0.12833333333333333 0.0
0.0 0.1288888888888889 0.0
0.0 0.12944444444444445 0.0
0.0 0.13 0.0
5.555555555555556E-4 0.0 0.0
5.555555555555556E-4 0.0015384615384615385 0.0
5.555555555555556E-4 0.003076923076923077 0.0
5.555555555555556E-4 0.004615384615384615 0.0
5.555555555555556E-4 0.006153846153846154 0.0
5.555555555555556E-4 0.007692307692307693 0.0
5.555555555555556E-4 0.00923076923076923 0.0
5.555555555555556E-4 0.010769230769230769 0.0
5.555555555555556E-4 0.012307692307692308 0.0
5.555555555555556E-4 0.013846153846153847 0.0
5.555555555555556E-4 0.015384615384615385 0.0
5.555555555555556E-4 0.016923076923076923 0.0
5.555555555555556E-4 0.01846153846153846 0.0
5.555555555555556E-4 0.02 0.0
5.555555555555556E-4 0.020555555555555556 0.0
5.555555555555556E-4 0.021111111111111112 0.0
5.555555555555556E-4 0.021666666666666667 0.0
5.555555555555556E-4 0.022222222222222223 0.0
5.555555555555556E-4 0.02277777777777778 0.0
5.555555555555556E-4 0.023333333333333334 0.0
5.555555555555556E-4 0.02388888888888889 0.0
5.555555555555556E-4 0.024444444444444446 0.0
5.555555555555556E-4 0.025 0.0
5.555555555555556E-4 0.036111111111111115 0.0
5.555555555555556E-4 0.04722222222222222 0.0
5.555555555555556E-4 0.058333333333333334 0.0
5.555555555555556E-4 0.06944444444444445 0.0
5.555555555555556E-4 0.08055555555555556 0.0
5.555555555555556E-4 0.09166666666666667 0.0
5.555555555555556E-4 0.10277777777777777 0.0
5.555555555555556E-4 0.1138888888888889 0.0
5.555555555555556E-4 0.125 0.0
5.555555555555556E-4 0.12555555555555556 0.0
5.555555555555556E-4 0.12611111111111112 0.0
5.555555555555556E-4 0.12666666666666668 0.0
5.555555555555556E-4 0.1272222222222222 0.0
5.555555555555556E-4 0.12777777777777777 0.0
5.555555555555556E-4 0.12833333333333333 0.0
5.555555555555556E-4 0.1288888888888889 0.0
5.555555555555556E-4 0.12944444444444445 0.0
5.555555555555556E-4 0.13 0.0
0.0011111111111111111 0.0 0.0
0.0011111111111111111 0.0015384615384615385 0.0
0.0011111111111111111 0.003076923076923077 0.0
0.0011111111111111111 0.004615384615384615 0.0
0.0011111111111111111 0.006153846153846154 0.0
0.0011111111111111111 0.007692307692307693 0.0
0.0011111111111111111 0.00923076923076923 0.0
0.0011111111111111111 0.010769230769230769 0.0
0.0011111111111111111 0.012307692307692308 0.0
0.0011111111111111111 0.013846153846153847 0.0
0.0011111111111111111 0.015384615384615385 0.0
0.0011111111111111111 0.016923076923076923 0.0
0.0011111111111111111 0.01846153846153846 0.0
0.0011111111111111111 0.02 0.0
0.0011111111111111111 0.020555555555555556 0.0
0.0011111111111111111 0.021111111111111112 0.0
0.0011111111111111111 0.021666666666666667 0.0
0.0011111111111111111 0.022222222222222223 0.0
0.0011111111111111111 0.02277777777777778 0.0
0.0011111111111111111 0.023333333333333334 0.0
0.0011111111111111111 0.02388888888888889 0.0
0.0011111111111111111 0.024444444444444446 0.0
0.0011111111111111111 0.025 0.0
0.0011111111111111111 0.036111111111111115 0.0
0.0011111111111111111 0.04722222222222222 0.0
0.0011111111111111111 0.058333333333333334 0.0
0.0011111111111111111 0.06944444444444445 0.0
0.0011111111111111111 0.08055555555555556 0.0
0.0011111111111111111 0.09166666666666667 0.0
0.0011111111111111111 0.10277777777777777 0.0
0.0011111111111111111 0.1138888888888889 0.0
0.0011111111111111111 0.125 0.0
0.0011111111111111111 0.12555555555555556 0.0
0.0011111111111111111 0.12611111111111112 0.0
0.0011111111111111111 0.12666666666666668 0.0
0.0011111111111111111 0.1272222222222222 0.0
0.0011111111111111111 0.12777777777777777 0.0
0.0011111111111111111 0.12833333333333333 0.0
0.0011111111111111111 0.1288888888888889 0.0
0.0011111111111111111 0.12944444444444445 0.0
0.0011111111111111111 0.13 0.0
0.0016666666666666666 0.0 0.0
0.0016666666666666666 0.0015384615384615385 0.0
0.0016666666666666666 0.003076923076923077 0.0
0.0016666666666666666 0.004615384615384615 0.0
0.0016666666666666666 0.006153846153846154 0.0
0.0016666666666666666 0.007692307692307693 0.0
0.0016666666666666666 0.00923076923076923 0.0
0.0016666666666666666 0.010769230769230769 0.0
0.0016666666666666666 0.012307692307692308 0.0
0.0016666666666666666 0.013846153846153847 0.0
0.0016666666666666666 0.015384615384615385 0.0
0.0016666666666666666 0.016923076923076923 0.0
0.0016666666666666666 0.01846153846153846 0.0
0.0016666666666666666 0.02 0.0
0.0016666666666666666 0.020555555555555556 0.0
0.0016666666666666666 0.021111111111111112 0.0
0.0016666666666666666 0.021666666666666667 0.0
0.0016666666666666666 0.022222222222222223 0.0
0.0016666666666666666 0.02277777777777778 0.0
0.0016666666666666666 0.023333333333333334 0.0
0.0016666666666666666 0.02388888888888889 0.0
0.0016666666666666666 0.024444444444444446 0.0
0.0016666666666666666 0.025 0.0
0.0016666666666666666 0.036111111111111115 0.0
0.0016666666666666666 0.04722222222222222 0.0
0.0016666666666666666 0.058333333333333334 0.0
0.0016666666666666666 0.06944444444444445 0.0
0.0016666666666666666 0.08055555555555556 0.0
0.0016666666666666666 0.09166666666666667 0.0
0.0016666666666666666 0.10277777777777777 0.0
0.0016666666666666666 0.1138888888888889 0.0
0.0016666666666666666 0.125 0.0
0.0016666666666666666 0.12555555555555556 0.0
0.0016666666666666666 0.12611111111111112 0.0
0.0016666666666666666 0.12666666666666668 0.0
0.0016666666666666666 0.1272222222222222 0.0
0.0016666666666666666 0.12777777777777777 0.0
0.0016666666666666666 0.12833333333333333 0.0
0.0016666666666666666 0.1288888888888889 0.0
0.0016666666666666666 0.12944444444444445 0.0
0.0016666666666666666 0.13 0.0
0.0022222222222222222 0.0 0.0
0.0022222222222222222 0.0015384615384615385 0.0
0.0022222222222222222 0.003076923076923077 0.0
0.0022222222222222222 0.004615384615384615 0.0
0.0022222222222222222 0.006153846153846154 0.0
0.0022222222222222222 0.007692307692307693 0.0
0.0022222222222222222 0.00923076923076923 0.0
0.0022222222222222222 0.010769230769230769 0.0
0.0022222222222222222 0.012307692307692308 0.0
0.0022222222222222222 0.013846153846153847 0.0
0.0022222222222222222 0.015384615384615385 0.0
0.0022222222222222222 0.016923076923076923 0.0
0.0022222222222222222 0.01846153846153846 0.0
0.0022222222222222222 0.02 0.0
0.0022222222222222222 0.020555555555555556 0.0
0.0022222222222222222 0.021111111111111112 0.0
0.0022222222222222222 0.021666666666666667 0.0
0.0022222222222222222 0.022222222222222223 0.0
0.0022222222222222222 0.02277777777777778 0.0
0.0022222222222222222 0.023333333333333334 0.0
0.0022222222222222222 0.02388888888888889 0.0
0.0022222222222222222 0.024444444444444446 0.0
0.0022222222222222222 0.025 0.0
0.0022222222222222222 0.036111111111111115 0.0
0.0022222222222222222 0.04722222222222222 0.0
0.0022222222222222222 0.058333333333333334 0.0
0.0022222222222222222 0.06944444444444445 0.0
0.0022222222222222222 0.08055555555555556 0.0
0.0022222222222222222 0.09166666666666667 0.0
0.0022222222222222222 0.10277777777777777 0.0
0.0022222222222222222 0.1138888888888889 0.0
0.0022222222222222222 0.125 0.0
0.0022222222222222222 0.12555555555555556 0.0
0.0022222222222222222 0.12611111111111112 0.0
0.0022222222222222222 0.12666666666666668 0.0
0.0022222222222222222 0.1272222222222222 0.0
0.0022222222222222222 0.12777777777777777 0.0
0.0022222222222222222 0.12833333333333333 0.0
0.0022222222222222222 0.1288888888888889 0.0
0.0022222222222222222 0.12944444444444445 0.0
0.0022222222222222222 0.13 0.0
0.002777777777777778 0.0 0.0
0.002777777777777778 0.0015384615384615385 0.0
0.002777777777777778 0.003076923076923077 0.0
0.002777777777777778 0.004615384615384615 0.0
0.002777777777777778 0.006153846153846154 0.0
0.002777777777777778 0.007692307692307693 0.0
0.002777777777777778 0.00923076923076923 0.0
0.002777777777777778 0.010769230769230769 0.0
0.002777777777777778 0.012307692307692308 0.0
0.002777777777777778 0.013846153846153847 0.0
0.002777777777777778 0.015384615384615385 0.0
0.002777777777777778 0.016923076923076923 0.0
0.002777777777777778 0.01846153846153846 0.0
0.002777777777777778 0.02 0.0
0.002777777777777778 0.020555555555555556 0.0
0.002777777777777778 0.021111111111111112 0.0
0.002777777777777778 0.021666666666666667 0.0
0.002777777777777778 0.022222222222222223 0.0
0.002777777777777778 0.02277777777777778 0.0
0.002777777777777778 0.023333333333333334 0.0
0.002777777777777778 0.02388888888888889 0.0
0.002777777777777778 0.024444444444444446 0.0
0.002777777777777778 0.025 0.0
0.002777777777777778 0.036111111111111115 0.0
0.002777777777777778 0.04722222222222222 0.0
0.002777777777777778 0.058333333333333334 0.0
0.002777777777777778 0.06944444444444445 0.0
0.002777777777777778 0.08055555555555556 0.0
0.002777777777777778 0.09166666666666667 0.0
0.002777777777777778 0.10277777777777777 0.0
0.002777777777777778 0.1138888888888889 0.0
0.002777777777777778 0.125 0.0
0.002777777777777778 0.12555555555555556 0.0
0.002777777777777778 0.12611111111111112 0.0
[...]
POINT_DATA 1353
SCALARS Temperatura float 1
LOOKUP_TABLE default
86.24512171572644
85.70775216811492
85.17607652918656
84.64972546356108
84.12836600857104
83.61159411149107
83.09889640281021
82.58960308262435
82.0828256845437
81.57734161211798
81.07146888602159
80.56241859852193
80.04679992075603
79.5066843743842
78.80975085997567
78.14525549506871
77.49087186183026
76.8426164136914
76.19797246309255
75.55529139524425
74.91337518405075
74.27136552637603
73.62872214967703
62.38903081545182
58.307984868158336
57.10790958420859
56.70259315462314
56.569886463073225
56.5018101301035
56.40647671634845
56.115811130244715
55.333845117022385
55.29170430618872
55.25010849987854
55.20913673246074
55.168855943486214
55.12932176121135
55.09057911621891
55.05266261852163
55.015596723179584
54.979395761123534
86.26487018778536
85.72738783902591
85.1955722698829
84.66908648424626
84.14759792755373
83.63070549018207
83.11789823472586
82.60851084680668
82.1016580432532
81.59614072154488
81.09023736325965
80.58148758958322
80.06527427751044
79.53221043405287
78.86319149711679
78.20100169093818
77.54783639030003
76.90002216413583
76.2555033492494
75.61275024624321
74.97060578572692
74.32821431944213
73.68502182835563
62.4202687413557
58.346256611065854
57.14588487031355
56.740853843991786
56.608199946456565
56.54015844516048
56.444806522157755
56.15466955318958
55.37070914785534
55.32847845610453
55.28679980365128
55.24575186844611
55.20540123556152
55.165803272611
55.12700277371682
55.089034316414185
55.05192238092176
55.01568133311298
86.28471601473616
85.74717928298263
85.21526489229859
84.68868681471723
84.16712123666014
83.65017431630633
83.13734346617886
82.62797477670804
82.1212027195278
81.61585487733731
81.11028739742156
80.60212727998668
80.08719284960628
79.56119134295443
78.90445621306753
78.25089567963725
77.60166728876882
76.95627072363637
76.31334802120983
75.67166397622411
75.03015011996273
74.38794378966153
73.74443856541309
62.42711997862227
58.38281574616779
57.1839030726409
56.78058857852096
56.648354327380396
56.58056113806493
56.48534049130233
56.19740184968968
55.40903799537372
55.3666241436077
55.32478244976116
55.28359020675757
55.24311270340314
55.20340438644697
55.164509579172524
55.12646274646934
55.08928844715532
55.05300115748456
86.30468858526746
85.76712756169486
85.23515366146837
84.70852471433945
84.18693327080402
83.66999696096008
83.15722680528326
82.6479881562902
82.14144570462737
81.63647715742384
81.13154217553524
80.62442450318909
80.11186969222574
79.59180791924051
78.94376275285256
78.29750643333087
77.65365963061139
77.0120608854985
76.37198257746132
75.73244432595519
75.09244128535953
74.45105116089039
73.80754136997952
62.40907185063096
58.417917178912454
57.22189562232047
56.82182371594858
56.690344408021076
56.623027001012495
56.52806243237613
56.24404482188341
55.44881216323882
55.406123076187214
55.36403969987139
55.32263640599546
55.28197594442106
55.242111128188526
55.20308560417539
55.164933843280984
55.12768070935348
55.09134097098174
86.32480316807626
85.78723633340866
85.25523699100154
84.72859720184769
84.20702958422102
83.69016728161756
83.17753977362266
82.66853860610587
82.16236895352472
81.65797748026914
81.15394547277751
80.64831309633672
80.13865595041246
79.62381027891692
78.98299149849514
78.34336419706754
77.70517481720488
77.06825691568986
76.4320465437117
75.79568844068557
75.15815284130188
74.51835498203931
73.87530597887667
62.365268737005636
58.45199716150264
57.25974341036789
56.864604117643
56.73415946149056
56.66756982768697
56.572943167895154
56.29465807620269
55.48999708043184
55.446943463166036
55.40454303005039
55.36286466399644
55.321966791806965
55.2818998818118
55.24270708093834
55.20442342484945
55.16707463669001
55.13067612656334
86.34506791427005
85.80750831695724
85.27551273085906
84.74889997463632
84.22740397771102
83.71067677330016
83.19827062108152
82.68960929679655
82.18394767676207
81.68031475819619
81.17743392147209
80.67364225712936
80.16713789702372
79.6571149021432
79.02289322222464
78.38959711389843
77.7572525463432
77.12562497213926
76.49417738131149
75.86206091399433
75.22812590513098
74.59098028215433
73.94916602415387
62.294483497401316
58.48568927336728
57.297269319733
56.90899616502341
56.77978196420737
56.71420924949617
56.61993947918261
56.34932541828211
55.532541340052276
55.489039592920555
55.44625285105275
55.40424005356026
55.36305251822079
55.32273810588479
55.28334059256928
55.24489707611936
55.207435112546406
55.170971281889194
86.36548665983608
85.82794442147991
85.2959778535321
84.76942743685245
84.24804854215695
83.73151467948765
83.21940456527388
82.71117931515707
82.2061508833418
81.70344050546797
81.20192867120497
80.7002456151768
80.19703824834757
79.69165143442925
79.06378491757414
78.4367594372129
77.81048433709779
77.18468675598754
76.55884885695731
75.93213433332065
75.30324209949441
74.67032294000546
74.03110166067947
62.19507218394527
58.51984861619776
57.334227064983985
56.95509226522101
56.827185699572816
56.762971975149746
56.66899255912057
56.408156935143055
55.57637387965358
55.53235127418975
55.489120599292725
55.446721369783184
55.405194285924004
55.364585081505886
55.32494306311949
55.28630978296213
55.24871592419595
55.21217985135738
86.38606021225158
85.848543646501
85.31662819669569
84.7901727032933
84.26895372617017
83.75266813384049
83.24092407033967
82.73322405651591
82.22894253494091
81.7272997600281
81.22734009087951
80.72796431144731
80.22815129926279
79.72733416021953
79.10577466881493
78.4850854921383
77.86513474693363
77.2456656535717
76.62623809344286
76.00613586939238
75.38417930533743
74.75793170643227
74.12379175113225
62.06490406973131
58.55558685390068
57.37028539882069
57.00301720137296
56.87633308770505
56.813893514278156
56.72002588508693
56.471291937263466
55.62139963076487
55.57680355749511
55.533091089426264
55.49027186374279
55.44834904022591
55.407392036666415
55.36746117359683
55.328605140495554
55.29085892417974
55.25424316312544
86.40678703880293
85.86930319528977
85.33745833677865
84.81112760016545
84.2901084204637
83.77412232900325
83.2628091412451
82.75571574237138
82.252282559375
81.75183239598586
81.25357330890282
80.75665127422569
80.26030773773398
79.7640586295524
79.14884771851648
78.53460968068805
77.92122336394219
77.30849899588934
76.69614664057558
76.08372505148326
75.4705108625778
74.8553707765302
74.23087438777021
61.90125343243674
58.59432246355864
57.405006179143385
57.05293687209378
56.92717154377308
56.867020426696286
56.772942667159576
56.538901967315304
55.66749682872644
55.62223602878306
55.57817696933881
55.53485948442483
55.4924690509091
55.45110060840136
55.4108298560544
55.371714020178864
55.33379284426489
55.29708932763617
86.42766369567818
85.89021863910037
85.35846155959926
84.83228268307755
84.31150005558221
83.79586070271279
83.28503764088643
82.77862398121202
82.27612779892515
81.77697479508608
81.2805319018452
80.78616942191474
80.29335615636097
79.80170431674105
79.19291323385545
78.58523866972659
77.97859779805702
77.37289524100431
76.76803090780714
76.16392490309934
75.56057653850009
74.95818657960665
59.40366522640286
59.40366522640286
59.40366522640286
59.40366522640286
59.40366522640286
59.40366522640286
59.40366522640286
59.40366522640286
59.40366522640286
59.40366522640286
55.66913749362009
55.6243832083258
55.580451014636125
55.53749625104143
55.49563924443169
55.45496978065899
55.41555275528023
55.37743186528585
55.34063193102338
86.8437822721103
86.30762952665624
85.77912199129979
85.25832352264922
84.74534209828728
84.2403401399915
83.74355124368802
83.25530450525467
82.7760577865657
82.30644123701825
81.84731158448098
81.39981715204493
80.96548031317617
80.54632717228351
80.03856515380382
79.53473532707433
79.03538791282477
78.54110683496904
78.05251533551389
77.57027763802938
77.09509203204621
76.62766725022868
59.40366522640286
59.40366522640286
59.40366522640286
59.40366522640286
59.40366522640286
59.40366522640286
59.40366522640286
59.40366522640286
59.40366522640286
59.40366522640286
56.56228346119607
56.49316929693701
56.42880047185799
56.3689722361804
56.31351903059199
56.26231046481716
56.21524761129988
56.172260378909954
56.13330575219271
87.23059456006118
86.69532150343285
86.16881017592122
85.65110612426764
85.14227991004658
84.64242560420443
84.1516575465496
83.67010433058749
83.19789847088435
82.73515956872647
82.28196810672199
81.83832593615247
81.40409599534475
80.97890470144966
80.45781021282556
79.93873169994447
79.42148414892506
78.90585894478211
78.39161736579248
77.87848457651536
77.36614527159601
76.85424311847203
59.40366522640286
59.40366522640286
59.40366522640286
59.40366522640286
59.40366522640286
59.40366522640286
59.40366522640286
59.40366522640286
59.40366522640286
59.40366522640286
56.80390498689624
56.750589295652176
56.69917754183202
56.64977968097864
56.6024827350373
56.55735366570502
56.51444176094286
56.47378037763927
56.43538813352859
87.53829318033758
87.0032625978773
86.47695914571445
85.9593911048717
85.45056646341332
84.95049149759348
84.45916899022859
83.97659633202771
83.50276396879337
83.03765500180327
82.58124724769336
82.13351988346955
81.69446863762656
81.26413750873067
80.7368435980909
80.21183917153319
79.68916917384887
79.16888799923754
78.65106280959061
78.13577701023891
77.62313364466577
77.11325819468438
59.40366522640286
59.40366522640286
59.40366522640286
59.40366522640286
59.40366522640286
59.40366522640286
59.40366522640286
59.40366522640286
59.40366522640286
59.40366522640286
56.89315678491417
56.83950050327303
56.78809824508458
56.73891313681068
56.69191652024099
56.64708645754716
56.604406539951704
56.56386501638567
56.52545419816966
87.76166686528933
87.22669292907624
86.70018955701964
86.18216060718827
85.67260795981824
85.17153168309918
84.67893029654847
84.194801146926
83.71914086663422
83.25194578719248
82.79321200296079
82.34293444374858
81.90110356635407
81.46769665490412
80.93630287799513
80.40708951752592
79.88004205215614
79.35514259886219
78.83236859242345
78.31169130960595
77.79307426835547
77.27647160477322
59.40366522640286
59.40366522640286
59.40366522640286
59.40366522640286
59.40366522640286
59.40366522640286
59.40366522640286
59.40366522640286
59.40366522640286
59.40366522640286
56.920097540210215
56.86761543576383
56.81712669263446
56.768642381198376
56.7221703526976
56.67771587308568
56.63528211484733
56.59487051386151
56.55648101149218
87.91152098562853
87.37657540836136
86.8499101579571
86.33152938766861
85.82143546050959
85.31962892349543
84.82610845371023
84.34087075877144
83.86391041866791
83.39521967437462
82.93478821359646
82.48260310753562
82.03864930653346
81.60291168554329
81.06850100143659
80.53626194870314
80.00619492681598
79.47830133487925
78.95258404052306
78.429047930311
77.90770054711506
77.3885528021206
59.40366522640286
59.40366522640286
59.40366522640286
59.40366522640286
59.40366522640286
59.40366522640286
59.40366522640286
59.40366522640286
59.40366522640286
59.40366522640286
56.9293129424965
56.876909392382956
56.826520734649144
56.7781416493888
56.731767779202634
56.68739548326925
56.64502165068419
56.60464356654625
56.566258822013985
87.99757345794276
87.4626429375965
86.93588095317844
86.41729157204603
85.90687708485694
85.40463800415522
84.91057306885693
84.42467926174537
83.94695184873336
83.47738444768015
83.01596912656686
82.56269650388495
82.11755574410482
81.68053413632225
81.14446307244637
80.61054931806756
80.07879017454505
79.54918256427612
79.02172286486766
78.49640670522452
77.9732287162499
77.45218223281728
59.40366522640286
59.40366522640286
59.40366522640286
59.40366522640286
59.40366522640286
59.40366522640286
59.40366522640286
59.40366522640286
59.40366522640286
59.40366522640286
56.932132041493794
56.879824975965235
56.829510280667826
56.78118737873558
56.73485529620488
56.69051275725959
56.64815825489439
56.60779010084401
56.56940645870186
88.02562121616131
87.49069541827517
86.96390137366792
86.44524319741052
85.93472328731578
85.43234233066006
84.93809931191676
84.45199151803868
83.97401453601196
83.50416223606041
83.04242673525229
82.58879834709758
82.14326556295325
81.70581522518245
81.16918771607081
80.63471387154476
80.10239197459431
79.5722204418857
79.04419791895832
78.51832340078865
77.9945963840093
77.47301705570331
59.40366522640286
59.40366522640286
59.40366522640286
59.40366522640286
59.40366522640286
59.40366522640286
59.40366522640286
59.40366522640286
59.40366522640286
59.40366522640286
56.9327920531806
56.88049062472731
56.83018422939715
56.78187043761605
56.73554698711063
56.69121172472794
56.64886256391536
56.60849745501451
56.57011436575629
87.99757345794326
87.46264293759701
86.93588095317891
86.41729157204647
85.90687708485731
85.40463800415554
84.91057306885725
84.42467926174571
83.94695184873373
83.47738444768055
83.01596912656727
82.56269650388538
82.11755574410523
81.68053413632266
81.1444630724468
80.610549318068
80.07879017454547
79.5491825642765
79.02172286486805
78.4964067052249
77.97322871625029
77.4521822328177
59.40366522640286
59.40366522640286
59.40366522640286
59.40366522640286
59.40366522640286
59.40366522640286
59.40366522640286
59.40366522640286
59.40366522640286
59.40366522640286
56.93213204149431
56.879824975965775
56.82951028066838
56.78118737873614
56.734855296205446
56.6905127572602
56.648158254895016
56.607790100844625
56.56940645870247
87.9115209856293
87.37657540836214
86.84991015795786
86.33152938766936
85.82143546051034
85.31962892349614
84.82610845371093
84.34087075877213
83.86391041866857
83.39521967437527
82.93478821359713
82.4826031075363
82.03864930653414
81.60291168554403
81.06850100143733
80.53626194870387
80.00619492681669
79.47830133487996
78.95258404052379
78.42904793031175
77.90770054711581
77.3885528021213
59.40366522640286
59.40366522640286
59.40366522640286
59.40366522640286
59.40366522640286
59.40366522640286
59.40366522640286
59.40366522640286
59.40366522640286
59.40366522640286
56.92931294249779
56.87690939238426
56.82652073465048
56.77814164939017
56.731767779204006
56.687395483270606
56.64502165068556
56.60464356654762
56.566258822015364
87.76166686528992
87.22669292907678
86.70018955702014
86.18216060718873
85.67260795981869
85.17153168309959
84.67893029654886
84.19480114692632
83.71914086663453
83.25194578719282
82.79321200296118
82.342934443749
81.90110356635454
81.46769665490459
80.93630287799564
80.40708951752646
79.88004205215668
79.35514259886267
78.83236859242383
78.31169130960626
77.79307426835571
77.27647160477343
59.40366522640286
59.40366522640286
59.40366522640286
59.40366522640286
59.40366522640286
59.40366522640286
59.40366522640286
59.40366522640286
59.40366522640286
59.40366522640286
56.920097540213554
56.86761543576726
56.81712669263794
56.76864238120186
56.72217035270108
56.67771587308913
56.635282114850696
56.594870513864784
56.55648101149544
87.53829318033793
87.00326259787768
86.47695914571487
85.95939110487217
85.45056646341378
84.95049149759393
84.45916899022907
83.97659633202821
83.50276396879389
83.03765500180376
82.58124724769381
82.13351988346999
81.69446863762693
81.26413750873105
80.73684359809131
80.21183917153353
79.68916917384924
79.16888799923795
78.65106280959112
78.13577701023948
77.62313364466634
77.11325819468496
59.40366522640286
59.40366522640286
59.40366522640286
59.40366522640286
59.40366522640286
59.40366522640286
59.40366522640286
59.40366522640286
59.40366522640286
59.40366522640286
56.89315678491684
56.83950050327576
56.78809824508737
56.73891313681353
56.69191652024389
56.647086457550095
56.60440653995468
56.56386501638869
56.52545419817268
87.23059456006091
86.69532150343257
86.16881017592091
85.65110612426727
85.1422799100462
84.6424256042041
84.15165754654926
83.67010433058715
83.197898470884
82.73515956872619
82.2819681067218
81.83832593615234
81.40409599534463
80.97890470144957
80.45781021282545
79.93873169994438
79.42148414892496
78.90585894478203
78.39161736579234
77.87848457651519
77.3661452715958
76.85424311847176
59.40366522640286
59.40366522640286
59.40366522640286
59.40366522640286
59.40366522640286
59.40366522640286
59.40366522640286
59.40366522640286
59.40366522640286
59.40366522640286
56.80390498689827
56.75058929565423
56.69917754183409
56.64977968098069
56.602482735039366
56.55735366570709
56.51444176094489
56.47378037764127
56.435388133530594
86.84378227210958
86.30762952665553
85.77912199129906
85.25832352264851
84.74534209828657
84.2403401399908
83.74355124368738
83.25530450525405
82.7760577865651
82.30644123701774
81.84731158448052
81.39981715204458
80.96548031317583
80.54632717228323
80.03856515380357
79.53473532707407
79.03538791282455
78.54110683496882
78.05251533551368
77.57027763802914
77.09509203204595
76.62766725022841
59.40366522640286
59.40366522640286
59.40366522640286
59.40366522640286
59.40366522640286
59.40366522640286
59.40366522640286
59.40366522640286
59.40366522640286
59.40366522640286
56.56228346119745
56.49316929693843
56.42880047185944
56.36897223618188
56.31351903059347
56.26231046481865
56.21524761130139
56.172260378911496
56.133305752194254
86.42766369567724
85.89021863909942
85.35846155959845
84.83228268307687
84.31150005558165
83.7958607027123
83.28503764088597
82.77862398121164
82.2761277989248
81.7769747950857
81.28053190184475
80.78616942191428
80.29335615636059
79.80170431674073
79.19291323385525
78.58523866972655
77.97859779805707
77.37289524100447
76.76803090780739
76.16392490309967
75.56057653850048
74.95818657960707
59.40366522640286
59.40366522640286
59.40366522640286
59.40366522640286
59.40366522640286
59.40366522640286
59.40366522640286
59.40366522640286
59.40366522640286
59.40366522640286
55.66913749362166
55.6243832083274
55.58045101463774
55.537496251043066
55.49563924443338
55.45496978066068
55.415552755281894
55.37743186528748
55.34063193102501
86.406787038802
85.86930319528881
85.33745833677784
84.81112760016478
84.2901084204632
83.77412232900284
83.26280914124469
82.75571574237102
82.25228255937468
81.7518323959855
81.25357330890238
80.75665127422522
80.26030773773354
79.7640586295521
79.14884771851631
78.53460968068802
77.92122336394226
77.3084989958895
76.69614664057582
76.08372505148358
75.47051086257821
74.85537077653059
74.23087438777064
61.90125343243825
58.59432246355846
57.40500617914326
57.052936872094755
56.92717154377346
56.8670204266968
56.77294266716015
56.538901967314565
55.66749682872795
55.622236028784585
55.57817696934039
55.5348594844264
55.49246905091068
55.45110060840295
55.41082985605601
55.37171402018048
55.33379284426652
55.29708932763772
86.38606021225061
85.84854364650005
85.31662819669488
84.79017270329267
84.26895372616968
83.75266813384009
83.24092407033928
82.7332240565155
82.22894253494059
81.72729976002769
81.22734009087905
80.72796431144683
80.22815129926234
79.72733416021924
79.10577466881476
78.48508549213828
77.86513474693366
77.24566565357185
76.62623809344312
76.00613586939274
75.38417930533788
74.75793170643279
74.1237917511328
62.064904069732854
58.5555868539006
57.370285398820634
57.003017201373936
56.87633308770549
56.81389351427867
56.72002588508756
56.471291937262706
55.6213996307664
55.57680355749663
55.533091089427806
55.49027186374435
55.44834904022748
55.40739203666795
55.36746117359841
55.32860514049711
55.29085892418131
55.254243163126965
86.36548665983507
85.82794442147896
85.29597785353127
84.76942743685181
84.24804854215647
83.73151467948726
83.21940456527345
82.71117931515661
82.20615088334142
81.70344050546755
81.20192867120447
80.70024561517639
80.19703824834716
79.691651434429
79.063784917574
78.43675943721279
77.8104843370978
77.18468675598766
76.5588488569576
75.93213433332103
75.30324209949488
74.670322940006
74.03110166068005
62.195072183946856
58.519848616197756
57.33422706498395
56.95509226522202
56.82718569957328
56.76297197515025
56.66899255912127
56.4081569351423
55.57637387965514
55.53235127419128
55.489120599294225
55.44672136978469
55.40519428592551
55.3645850815074
55.324943063121026
55.28630978296366
55.248715924197484
55.212179851358904
86.34506791426898