# vtk DataFile Version 2.0
Niestacjonarne zagadnienie cieplne - ogrzewanie wody w garnku stalowym
ASCII
DATASET UNSTRUCTURED_GRID
POINTS 1353 float
0.0 0.0 0.0
0.0 0.0015384615384615385 0.0
0.0 0.003076923076923077 0.0
0.0 0.004615384615384615 0.0
0.0 0.006153846153846154 0.0
0.0 0.007692307692307693 0.0
0.0 0.00923076923076923 0.0
0.0 0.010769230769230769 0.0
0.0 0.012307692307692308 0.0
0.0 0.013846153846153847 0.0
0.0 0.015384615384615385 0.0
0.0 0.016923076923076923 0.0
0.0 0.01846153846153846 0.0
0.0 0.02 0.0
0.0 0.020555555555555556 0.0
0.0 0.021111111111111112 0.0
0.0 0.021666666666666667 0.0
0.0 0.022222222222222223 0.0
0.0 0.02277777777777778 0.0
0.0 0.023333333333333334 0.0
0.0 0.02388888888888889 0.0
0.0 0.024444444444444446 0.0
0.0 0.025 0.0
0.0 0.036111111111111115 0.0
0.0 0.04722222222222222 0.0
0.0 0.058333333333333334 0.0
0.0 0.06944444444444445 0.0
0.0 0.08055555555555556 0.0
0.0 0.09166666666666667 0.0
0.0 0.10277777777777777 0.0
0.0 0.1138888888888889 0.0
0.0 0.125 0.0
0.0 0.12555555555555556 0.0
0.0 0.12611111111111112 0.0
0.0 0.12666666666666668 0.0
0.0 0.1272222222222222 0.0
0.0 0.12777777777777777 0.0
0.0 0.12833333333333333 0.0
0.0 0.1288888888888889 0.0
0.0 0.12944444444444445 0.0
0.0 0.13 0.0
5.555555555555556E-4 0.0 0.0
5.555555555555556E-4 0.0015384615384615385 0.0
5.555555555555556E-4 0.003076923076923077 0.0
5.555555555555556E-4 0.004615384615384615 0.0
5.555555555555556E-4 0.006153846153846154 0.0
5.555555555555556E-4 0.007692307692307693 0.0
5.555555555555556E-4 0.00923076923076923 0.0
5.555555555555556E-4 0.010769230769230769 0.0
5.555555555555556E-4 0.012307692307692308 0.0
5.555555555555556E-4 0.013846153846153847 0.0
5.555555555555556E-4 0.015384615384615385 0.0
5.555555555555556E-4 0.016923076923076923 0.0
5.555555555555556E-4 0.01846153846153846 0.0
5.555555555555556E-4 0.02 0.0
5.555555555555556E-4 0.020555555555555556 0.0
5.555555555555556E-4 0.021111111111111112 0.0
5.555555555555556E-4 0.021666666666666667 0.0
5.555555555555556E-4 0.022222222222222223 0.0
5.555555555555556E-4 0.02277777777777778 0.0
5.555555555555556E-4 0.023333333333333334 0.0
5.555555555555556E-4 0.02388888888888889 0.0
5.555555555555556E-4 0.024444444444444446 0.0
5.555555555555556E-4 0.025 0.0
5.555555555555556E-4 0.036111111111111115 0.0
5.555555555555556E-4 0.04722222222222222 0.0
5.555555555555556E-4 0.058333333333333334 0.0
5.555555555555556E-4 0.06944444444444445 0.0
5.555555555555556E-4 0.08055555555555556 0.0
5.555555555555556E-4 0.09166666666666667 0.0
5.555555555555556E-4 0.10277777777777777 0.0
5.555555555555556E-4 0.1138888888888889 0.0
5.555555555555556E-4 0.125 0.0
5.555555555555556E-4 0.12555555555555556 0.0
5.555555555555556E-4 0.12611111111111112 0.0
5.555555555555556E-4 0.12666666666666668 0.0
5.555555555555556E-4 0.1272222222222222 0.0
5.555555555555556E-4 0.12777777777777777 0.0
5.555555555555556E-4 0.12833333333333333 0.0
5.555555555555556E-4 0.1288888888888889 0.0
5.555555555555556E-4 0.12944444444444445 0.0
5.555555555555556E-4 0.13 0.0
0.0011111111111111111 0.0 0.0
0.0011111111111111111 0.0015384615384615385 0.0
0.0011111111111111111 0.003076923076923077 0.0
0.0011111111111111111 0.004615384615384615 0.0
0.0011111111111111111 0.006153846153846154 0.0
0.0011111111111111111 0.007692307692307693 0.0
0.0011111111111111111 0.00923076923076923 0.0
0.0011111111111111111 0.010769230769230769 0.0
0.0011111111111111111 0.012307692307692308 0.0
0.0011111111111111111 0.013846153846153847 0.0
0.0011111111111111111 0.015384615384615385 0.0
0.0011111111111111111 0.016923076923076923 0.0
0.0011111111111111111 0.01846153846153846 0.0
0.0011111111111111111 0.02 0.0
0.0011111111111111111 0.020555555555555556 0.0
0.0011111111111111111 0.021111111111111112 0.0
0.0011111111111111111 0.021666666666666667 0.0
0.0011111111111111111 0.022222222222222223 0.0
0.0011111111111111111 0.02277777777777778 0.0
0.0011111111111111111 0.023333333333333334 0.0
0.0011111111111111111 0.02388888888888889 0.0
0.0011111111111111111 0.024444444444444446 0.0
0.0011111111111111111 0.025 0.0
0.0011111111111111111 0.036111111111111115 0.0
0.0011111111111111111 0.04722222222222222 0.0
0.0011111111111111111 0.058333333333333334 0.0
0.0011111111111111111 0.06944444444444445 0.0
0.0011111111111111111 0.08055555555555556 0.0
0.0011111111111111111 0.09166666666666667 0.0
0.0011111111111111111 0.10277777777777777 0.0
0.0011111111111111111 0.1138888888888889 0.0
0.0011111111111111111 0.125 0.0
0.0011111111111111111 0.12555555555555556 0.0
0.0011111111111111111 0.12611111111111112 0.0
0.0011111111111111111 0.12666666666666668 0.0
0.0011111111111111111 0.1272222222222222 0.0
0.0011111111111111111 0.12777777777777777 0.0
0.0011111111111111111 0.12833333333333333 0.0
0.0011111111111111111 0.1288888888888889 0.0
0.0011111111111111111 0.12944444444444445 0.0
0.0011111111111111111 0.13 0.0
0.0016666666666666666 0.0 0.0
0.0016666666666666666 0.0015384615384615385 0.0
0.0016666666666666666 0.003076923076923077 0.0
0.0016666666666666666 0.004615384615384615 0.0
0.0016666666666666666 0.006153846153846154 0.0
0.0016666666666666666 0.007692307692307693 0.0
0.0016666666666666666 0.00923076923076923 0.0
0.0016666666666666666 0.010769230769230769 0.0
0.0016666666666666666 0.012307692307692308 0.0
0.0016666666666666666 0.013846153846153847 0.0
0.0016666666666666666 0.015384615384615385 0.0
0.0016666666666666666 0.016923076923076923 0.0
0.0016666666666666666 0.01846153846153846 0.0
0.0016666666666666666 0.02 0.0
0.0016666666666666666 0.020555555555555556 0.0
0.0016666666666666666 0.021111111111111112 0.0
0.0016666666666666666 0.021666666666666667 0.0
0.0016666666666666666 0.022222222222222223 0.0
0.0016666666666666666 0.02277777777777778 0.0
0.0016666666666666666 0.023333333333333334 0.0
0.0016666666666666666 0.02388888888888889 0.0
0.0016666666666666666 0.024444444444444446 0.0
0.0016666666666666666 0.025 0.0
0.0016666666666666666 0.036111111111111115 0.0
0.0016666666666666666 0.04722222222222222 0.0
0.0016666666666666666 0.058333333333333334 0.0
0.0016666666666666666 0.06944444444444445 0.0
0.0016666666666666666 0.08055555555555556 0.0
0.0016666666666666666 0.09166666666666667 0.0
0.0016666666666666666 0.10277777777777777 0.0
0.0016666666666666666 0.1138888888888889 0.0
0.0016666666666666666 0.125 0.0
0.0016666666666666666 0.12555555555555556 0.0
0.0016666666666666666 0.12611111111111112 0.0
0.0016666666666666666 0.12666666666666668 0.0
0.0016666666666666666 0.1272222222222222 0.0
0.0016666666666666666 0.12777777777777777 0.0
0.0016666666666666666 0.12833333333333333 0.0
0.0016666666666666666 0.1288888888888889 0.0
0.0016666666666666666 0.12944444444444445 0.0
0.0016666666666666666 0.13 0.0
0.0022222222222222222 0.0 0.0
0.0022222222222222222 0.0015384615384615385 0.0
0.0022222222222222222 0.003076923076923077 0.0
0.0022222222222222222 0.004615384615384615 0.0
0.0022222222222222222 0.006153846153846154 0.0
0.0022222222222222222 0.007692307692307693 0.0
0.0022222222222222222 0.00923076923076923 0.0
0.0022222222222222222 0.010769230769230769 0.0
0.0022222222222222222 0.012307692307692308 0.0
0.0022222222222222222 0.013846153846153847 0.0
0.0022222222222222222 0.015384615384615385 0.0
0.0022222222222222222 0.016923076923076923 0.0
0.0022222222222222222 0.01846153846153846 0.0
0.0022222222222222222 0.02 0.0
0.0022222222222222222 0.020555555555555556 0.0
0.0022222222222222222 0.021111111111111112 0.0
0.0022222222222222222 0.021666666666666667 0.0
0.0022222222222222222 0.022222222222222223 0.0
0.0022222222222222222 0.02277777777777778 0.0
0.0022222222222222222 0.023333333333333334 0.0
0.0022222222222222222 0.02388888888888889 0.0
0.0022222222222222222 0.024444444444444446 0.0
0.0022222222222222222 0.025 0.0
0.0022222222222222222 0.036111111111111115 0.0
0.0022222222222222222 0.04722222222222222 0.0
0.0022222222222222222 0.058333333333333334 0.0
0.0022222222222222222 0.06944444444444445 0.0
0.0022222222222222222 0.08055555555555556 0.0
0.0022222222222222222 0.09166666666666667 0.0
0.0022222222222222222 0.10277777777777777 0.0
0.0022222222222222222 0.1138888888888889 0.0
0.0022222222222222222 0.125 0.0
0.0022222222222222222 0.12555555555555556 0.0
0.0022222222222222222 0.12611111111111112 0.0
0.0022222222222222222 0.12666666666666668 0.0
0.0022222222222222222 0.1272222222222222 0.0
0.0022222222222222222 0.12777777777777777 0.0
0.0022222222222222222 0.12833333333333333 0.0
0.0022222222222222222 0.1288888888888889 0.0
0.0022222222222222222 0.12944444444444445 0.0
0.0022222222222222222 0.13 0.0
0.002777777777777778 0.0 0.0
0.002777777777777778 0.0015384615384615385 0.0
0.002777777777777778 0.003076923076923077 0.0
0.002777777777777778 0.004615384615384615 0.0
0.002777777777777778 0.006153846153846154 0.0
0.002777777777777778 0.007692307692307693 0.0
0.002777777777777778 0.00923076923076923 0.0
0.002777777777777778 0.010769230769230769 0.0
0.002777777777777778 0.012307692307692308 0.0
0.002777777777777778 0.013846153846153847 0.0
0.002777777777777778 0.015384615384615385 0.0
0.002777777777777778 0.016923076923076923 0.0
0.002777777777777778 0.01846153846153846 0.0
0.002777777777777778 0.02 0.0
0.002777777777777778 0.020555555555555556 0.0
0.002777777777777778 0.021111111111111112 0.0
0.002777777777777778 0.021666666666666667 0.0
0.002777777777777778 0.022222222222222223 0.0
0.002777777777777778 0.02277777777777778 0.0
0.002777777777777778 0.023333333333333334 0.0
0.002777777777777778 0.02388888888888889 0.0
0.002777777777777778 0.024444444444444446 0.0
0.002777777777777778 0.025 0.0
0.002777777777777778 0.036111111111111115 0.0
0.002777777777777778 0.04722222222222222 0.0
0.002777777777777778 0.058333333333333334 0.0
0.002777777777777778 0.06944444444444445 0.0
0.002777777777777778 0.08055555555555556 0.0
0.002777777777777778 0.09166666666666667 0.0
0.002777777777777778 0.10277777777777777 0.0
0.002777777777777778 0.1138888888888889 0.0
0.002777777777777778 0.125 0.0
0.002777777777777778 0.12555555555555556 0.0
0.002777777777777778 0.12611111111111112 0.0
[...]
POINT_DATA 1353
SCALARS Temperatura float 1
LOOKUP_TABLE default
122.72773037015382
122.21961132463349
121.71554028827116
121.21511627308946
120.71795168226402
120.22356005605147
119.73130975518539
119.24036268168987
118.74958968175213
118.25740413424847
117.76158638385924
117.25827196521315
116.7428156808445
116.18725257388122
115.45426397848932
114.77319950686616
114.10831460993677
113.45350137466046
112.80501027652868
112.16046877518171
111.51818391316509
110.87693173914069
110.2358841064862
99.0907894298338
95.04975576594445
93.85989554256338
93.4563235865675
93.31827482997558
93.2296350448983
93.07196086066998
92.57015869037707
91.20591196652703
91.12933121595556
91.05314953046701
90.97742712542231
90.90220623334122
90.82751637763712
90.75337838098665
90.67980693266182
90.60681192870601
90.53439899452864
122.75833520440813
122.25011269669783
121.74591189826629
121.24536431021264
120.74808302144406
120.25358501861686
119.76124182081745
119.27022162366092
118.7793992190358
118.28722439156608
117.79141130396411
117.2886243536464
116.77223016350091
116.22809831178795
115.54045318804337
114.8633487340493
114.20066867948104
113.54680916550925
112.8987728432619
112.25439097145038
111.61205304070972
110.97055938662281
110.32908111539793
99.1594898986697
95.12536582169163
93.93522218411808
93.53193213877795
93.39393873390289
93.30534722137315
93.14764513069794
92.64670868955449
91.27928782462604
91.20258699446845
91.12629763602432
91.05047689163159
90.97516428379667
90.90038733909974
90.8261656655264
90.75251337658692
90.67944019304142
90.60695173718594
122.78903411575268
122.2807678246605
121.77648225929053
121.2758603493647
120.7785247987532
120.28400133219348
119.79167235386512
119.30072153564008
118.81005184585928
118.31815120587069
117.82285259589528
117.3209529723902
116.80651255415874
116.2736671540744
115.60576747751797
114.94250873666282
114.2860928975929
113.6360524462821
112.99053749493325
112.34788911199959
111.70668898913827
111.06578809063426
110.42434086170555
99.20367318971353
95.19880256446554
94.01013685866948
93.6085491464217
93.47099364133338
93.38273422663802
93.22525779526052
92.72797487298605
91.3537855676078
91.27688423114927
91.20043095466274
91.12447288715536
91.04904097653434
90.97415666241513
90.89983605741254
90.82609179465301
90.75293329723996
90.6803663266925
122.81985600398824
122.31157726298343
121.807250070672
121.30660197677327
120.80927348429978
120.31480422613573
119.82259427279482
119.33185351279373
118.84152750224013
118.3501768509199
117.85579066172404
117.35540421185777
116.8445612260431
116.32099837462641
115.6667181354016
115.0148311339316
114.3666724117286
113.72233376731428
113.08101363940392
112.4415190285615
111.80261778704372
111.1631754349653
110.52226920994872
99.22282444220937
95.27031894617075
94.08457100588056
93.68620050739808
93.54943281880952
93.46180757583026
93.30477030723777
92.81401729000063
91.42935962085386
91.35218768452302
91.27552495455491
91.19939951726718
91.12382679473333
91.04881807757506
90.97438444839428
90.90053711062333
90.82728586260083
90.75463723432316
122.85081532875552
122.34254383021486
121.83821281053945
121.33758509499201
120.84032321558679
120.34598562878492
119.85399635515569
119.36360082414967
118.87380136025932
118.38325849100507
117.89014228692447
117.3918815072617
116.88533739921992
116.36969105467413
115.72635250480384
115.08441524280543
114.44460757451435
113.80702288019702
113.17115584756567
112.53608344262743
111.90065082750161
111.26363241936707
110.62390058292247
99.21608524319134
95.34034806336658
94.15840590238241
93.76493064196835
93.6292432019157
93.54258609905948
93.38613253397249
92.90493482339905
91.50592975526096
91.4284376783409
91.35154047633098
91.27523374488212
91.19950864498834
91.12436287733912
91.04980289534235
90.97584052233226
90.90248805640122
90.82975420981423
122.88191911941321
122.37366908143696
121.869367033462
121.36880385997651
120.87166583905196
120.37753440023536
119.88586307763774
119.39594084051406
118.90683939788516
118.41733775323195
117.92581580713954
117.4301553575933
116.92818895349669
116.41962925989691
115.78591074754696
115.15311517942507
114.5216030644063
113.89135553005528
113.26192974120683
112.63247733002426
112.0017920778411
111.36839809679473
110.73074467686388
99.18222600794448
95.40951886271108
94.23146527490775
93.84480552646012
93.7104039937394
93.62509715534911
93.46927083016894
93.00086839194948
91.58337516560616
91.50555069260386
91.42842916821276
91.35195224689052
91.27607580200215
91.2007834901081
91.12608197066501
91.05198944976816
90.97852480983578
90.90570127808677
122.91316978791518
122.40495244922094
121.90070807113341
121.40025072918596
120.90329098844674
120.40943649323472
119.91817497217158
119.42884557962935
118.94059920619955
118.45234648010423
117.96269745877119
117.46997508085093
116.97269151137175
116.47073230363006
115.84595362517085
115.22188830166789
114.59868192911097
113.97622953578869
113.35410549670262
112.73149994493518
112.1070936677049
111.47899369886157
110.84487008890409
99.11960173962125
95.47868002039736
94.30350423603649
93.92591723237067
93.79288456350034
93.70937844844886
93.55408513489888
93.10200597907179
91.66152446579699
91.5834226463088
91.50614655442187
91.42954548061363
91.35353006772151
91.27807758936655
91.20321152584691
91.12896655430299
91.05537404703719
90.98245474588494
122.9445664284076
122.43639115779956
121.93222979277557
121.43191649077536
120.93518619270438
120.44167516031374
119.9509090367873
119.46228228058925
118.97503177005787
118.48820810024674
118.00065880653428
117.51110607199237
117.01854321359923
116.52290743487424
115.90672757080634
115.29121203511174
114.67639645684794
114.06214990153556
113.4481091491347
112.83358827947552
112.21739976009613
111.59709664650578
110.96905166002617
99.02608303722246
95.5489346613146
94.37419359238892
94.00839033526954
93.87664147618686
93.79548059624832
93.640444786472
93.20859036700152
91.74013874699533
91.66194237027825
91.58467859851154
91.50805166455582
91.43189599659149
91.35625031187638
91.28117933329308
91.20674698700947
91.13300343967326
91.05997984225637
122.97610552088074
122.4679803530068
121.96392449939898
121.46379029362097
120.96733700543851
120.47423119914686
119.9840391632481
119.49621416897175
119.0100830044021
118.52483960272453
118.0395654987113
117.55333645126042
117.06550702967365
116.5760427260098
115.96830242779136
115.36127783876923
114.75496489125764
114.1492646113936
113.54394517196431
112.93858894138718
112.33246347797774
111.72437350510701
111.10702812248375
98.89894833451433
95.62169040019056
94.44309798679684
94.09239075714498
93.96161441655062
93.88347060996793
93.72818285345194
93.32092994460957
91.8188869808856
91.74093132003185
91.66421840338968
91.58757500447499
91.51122373541689
91.43531046084597
91.35996588989305
91.28529315787141
91.21136541224465
91.13822583684605
123.00778137763515
122.49971328522817
121.99578291756981
121.49585969746757
120.99972715173992
120.50708321985414
120.01753659372493
119.53060128098423
119.0456951694847
118.56215406961225
118.07928298669437
117.59647373374533
117.11337979588312
116.63000881686972
116.0306418566615
115.43209953024886
114.83437721163259
114.23744168084231
113.64123342439797
113.04568724527698
112.45078774576996
111.8566892911088
97.55076111915189
97.55076111915189
97.55076111915189
97.55076111915189
97.55076111915189
97.55076111915189
97.55076111915189
97.55076111915189
97.55076111915189
97.55076111915189
91.82161348066312
91.74508694498226
91.66827670799422
91.59157277717195
91.51525760336787
91.43953446214584
91.36454694054981
91.29039059178248
91.21711989644604
123.6250610670813
123.118701095396
122.6189483086136
122.12588268129866
121.63964143281672
121.16043218617706
120.68855390254265
120.2244269162385
119.76863334758428
119.32196854990036
118.88550216889838
118.46064546780461
118.04923130196752
117.65364980991936
117.17566109389432
116.70156741504843
116.23201032160824
115.76767342727771
115.30929051323807
114.85764959483363
114.41358850725331
113.97797380856191
97.55076111915189
97.55076111915189
97.55076111915189
97.55076111915189
97.55076111915189
97.55076111915189
97.55076111915189
97.55076111915189
97.55076111915189
97.55076111915189
93.35878431936442
93.24395124768377
93.13532304338382
93.03253509707962
92.93530061628182
92.84339780026367
92.7566606606898
92.67497298899411
92.59826448898342
124.18511172108197
123.67987747874881
123.18257120703832
122.69324700887817
122.21198982973658
121.7389133290496
121.27415552866475
120.81787095536198
120.37021744063061
119.93133513019161
119.50131478508254
119.08015168125087
118.66767709591477
118.26344646745773
117.76761865595344
117.27339154684803
116.78054621121547
116.28883526085168
115.79797479841484
115.30763675965336
114.81744271819863
114.32696128486096
97.55076111915189
97.55076111915189
97.55076111915189
97.55076111915189
97.55076111915189
97.55076111915189
97.55076111915189
97.55076111915189
97.55076111915189
97.55076111915189
93.78109890356316
93.69278853336805
93.60587381870484
93.52054611644272
93.43695516161533
93.35521558839314
93.27541175325432
93.19760109919923
93.12181639675235
124.62767549110772
124.12275495300344
123.62564471250948
123.13635200712189
122.65488336994636
122.18124290721555
121.71543014900891
121.25743779265842
120.80724991406798
120.36484160174302
119.93018147313833
119.50323935212332
119.08400352988012
118.67251726088064
118.16780986254689
117.6650056446914
117.16415547959528
116.66532150402135
116.16858112705506
115.67403128314108
115.18179273092896
114.69201390847114
97.55076111915189
97.55076111915189
97.55076111915189
97.55076111915189
97.55076111915189
97.55076111915189
97.55076111915189
97.55076111915189
97.55076111915189
97.55076111915189
93.93651565281561
93.84785165989665
93.76114664768717
93.67633984053211
93.59338499919363
93.51224744754904
93.43290185529015
93.35533066278369
93.27952302278553
124.94906843057373
124.44422628775236
123.94681943119335
123.45684972709589
122.97431632543937
122.49921586109008
122.03154276970491
121.57128972994559
121.11844818894983
120.67300881728869
120.23496154990771
119.80429451386603
119.38099027994876
118.96501585781571
118.45435881146521
117.94546757300235
117.43832378397528
116.93290510254013
116.42918362484365
115.92712410586623
115.42668199230928
114.92780135524282
97.55076111915189
97.55076111915189
97.55076111915189
97.55076111915189
97.55076111915189
97.55076111915189
97.55076111915189
97.55076111915189
97.55076111915189
97.55076111915189
93.98388714793232
93.89722352157212
93.81207726762673
93.7284688648522
93.64641321806837
93.56592084589444
93.48699876189745
93.40965110066935
93.33387953738094
125.16501220465321
124.66021057495925
124.16256936866937
123.67209082526006
123.1887747297757
122.71261838129959
122.24361652813457
121.78176125047949
121.3270417772974
120.87944424540915
120.43895145745243
120.00554280620527
119.57919482393359
119.1598835250986
118.64490526194561
118.13167525098369
117.62019261062126
117.1104576409836
116.6024723812837
116.09624126824387
115.59177190854257
115.08907596038924
97.55076111915189
97.55076111915189
97.55076111915189
97.55076111915189
97.55076111915189
97.55076111915189
97.55076111915189
97.55076111915189
97.55076111915189
97.55076111915189
94.00010204530982
93.9135923170951
93.82863294961554
93.74521673581842
93.66333814772327
93.58299289072312
93.5041775762125
93.42688949046116
93.35112644084207
125.28916716434517
124.78438725643012
124.2866064929684
123.79582703471694
123.31204863654011
122.83526864706538
122.36548201597775
121.90268131708217
121.44685679695415
120.997996457799
120.55608617473412
120.12110981911314
119.69304926842506
119.2718839376569
118.75450763034303
118.23885900376565
117.72493369524888
117.21272689990371
116.70223317470304
116.19344619623334
115.68635846155968
115.18096092531994
97.55076111915189
97.55076111915189
97.55076111915189
97.55076111915189
97.55076111915189
97.55076111915189
97.55076111915189
97.55076111915189
97.55076111915189
97.55076111915189
94.00509564338482
93.91875278070586
93.83392192432385
93.75060382095685
93.66879856218603
93.58850575334111
93.5097246356494
93.43245417142194
93.35669310010556
125.32966035954814
124.82488730736856
124.32706037088086
123.83618177778462
123.35225143237933
122.87526692454149
122.40522354036993
121.94211427051675
121.48592981022112
121.03665854356338
120.59428650566723
120.15879732779321
119.73017221578534
119.30839014816576
118.7902136031729
118.27375914381655
117.75902355990327
117.2460038009166
116.73469708844911
116.22510105924151
115.7172139472435
115.21103481203916
97.55076111915189
97.55076111915189
97.55076111915189
97.55076111915189
97.55076111915189
97.55076111915189
97.55076111915189
97.55076111915189
97.55076111915189
97.55076111915189
94.00626540157621
93.91993376403207
93.83511831691459
93.75181669877256
93.67002685643821
93.58974694295122
93.51097524453824
93.43371013016493
93.35795001863485
125.28916716434591
124.78438725643086
124.28660649296909
123.79582703471759
123.31204863654067
122.83526864706585
122.36548201597822
121.90268131708265
121.44685679695468
120.99799645779956
120.5560861747347
120.12110981911377
119.69304926842571
119.27188393765755
118.7545076303437
118.2388590037663
117.72493369524952
117.2127268999043
116.70223317470362
116.1934461962339
115.68635846156025
115.18096092532055
97.55076111915189
97.55076111915189
97.55076111915189
97.55076111915189
97.55076111915189
97.55076111915189
97.55076111915189
97.55076111915189
97.55076111915189
97.55076111915189
94.00509564338577
93.91875278070684
93.83392192432483
93.75060382095782
93.66879856218702
93.58850575334216
93.50972463565046
93.432454171423
93.35669310010661
125.16501220465435
124.66021057496039
124.1625693686705
123.67209082526117
123.18877472977682
122.7126183813007
122.24361652813562
121.78176125048054
121.32704177729838
120.87944424541011
120.43895145745343
120.00554280620628
119.57919482393459
119.15988352509967
118.64490526194668
118.13167525098471
117.62019261062227
117.1104576409846
116.6024723812847
116.09624126824488
115.59177190854358
115.08907596039019
97.55076111915189
97.55076111915189
97.55076111915189
97.55076111915189
97.55076111915189
97.55076111915189
97.55076111915189
97.55076111915189
97.55076111915189
97.55076111915189
94.00010204531196
93.91359231709727
93.82863294961776
93.7452167358207
93.66333814772555
93.5829928907254
93.5041775762148
93.4268894904635
93.35112644084438
124.9490684305745
124.44422628775308
123.94681943119404
123.45684972709653
122.97431632544003
122.4992158610907
122.03154276970551
121.57128972994613
121.11844818895037
120.67300881728924
120.23496154990832
119.80429451386671
119.3809902799495
118.96501585781645
118.45435881146601
117.94546757300316
117.43832378397605
116.93290510254084
116.42918362484423
115.9271241058667
115.4266819923097
114.92780135524319
97.55076111915189
97.55076111915189
97.55076111915189
97.55076111915189
97.55076111915189
97.55076111915189
97.55076111915189
97.55076111915189
97.55076111915189
97.55076111915189
93.9838871479378
93.89722352157777
93.81207726763247
93.72846886485794
93.6464132180741
93.56592084590008
93.48699876190295
93.4096511006747
93.33387953738625
124.62767549110822
124.12275495300396
123.62564471251008
123.13635200712255
122.654883369947
122.18124290721617
121.71543014900955
121.25743779265905
120.80724991406863
120.3648416017437
119.930181473139
119.50323935212393
119.08400352988069
118.6725172608812
118.16780986254747
117.66500564469192
117.16415547959582
116.66532150402197
116.16858112705584
115.67403128314191
115.1817927309298
114.69201390847195
97.55076111915189
97.55076111915189
97.55076111915189
97.55076111915189
97.55076111915189
97.55076111915189
97.55076111915189
97.55076111915189
97.55076111915189
97.55076111915189
93.93651565282006
93.84785165990118
93.76114664769179
93.67633984053683
93.59338499919842
93.51224744755389
93.43290185529506
93.35533066278867
93.27952302279051
124.18511172108151
123.67987747874835
123.18257120703785
122.69324700887763
122.21198982973608
121.73891332904921
121.27415552866437
120.8178709553616
120.3702174406302
119.93133513019127
119.5013147850823
119.08015168125071
118.66767709591463
118.2634464674576
117.76761865595331
117.27339154684798
116.7805462112154
116.28883526085164
115.79797479841474
115.30763675965324
114.81744271819844
114.32696128486069
97.55076111915189
97.55076111915189
97.55076111915189
97.55076111915189
97.55076111915189
97.55076111915189
97.55076111915189
97.55076111915189
97.55076111915189
97.55076111915189
93.78109890356653
93.69278853337147
93.60587381870826
93.52054611644613
93.43695516161876
93.35521558839655
93.27541175325769
93.19760109920256
93.12181639675568
123.62506106708038
123.11870109539511
122.61894830861269
122.12588268129778
121.63964143281581
121.1604321861762
120.6885539025419
120.22442691623772
119.76863334758356
119.32196854989975
118.88550216889787
118.46064546780421
118.04923130196715
117.65364980991903
117.17566109389406
116.70156741504816
116.23201032160799
115.76767342727744
115.3092905132378
114.85764959483332
114.41358850725298
113.97797380856156
97.55076111915189
97.55076111915189
97.55076111915189
97.55076111915189
97.55076111915189
97.55076111915189
97.55076111915189
97.55076111915189
97.55076111915189
97.55076111915189
93.3587843193667
93.24395124768613
93.13532304338626
93.03253509708212
92.93530061628431
92.84339780026619
92.75666066069235
92.67497298899669
92.598264488986
123.007781377634
122.499713285227
121.99578291756882
121.49585969746676
120.99972715173931
120.50708321985361
120.01753659372443
119.5306012809838
119.04569516948428
118.56215406961174
118.07928298669381
117.59647373374477
117.11337979588266
116.63000881686936
116.03064185666129
115.43209953024886
114.83437721163277
114.23744168084266
113.64123342439846
113.04568724527762
112.4507877457707
111.85668929110959
97.55076111915189
97.55076111915189
97.55076111915189
97.55076111915189
97.55076111915189
97.55076111915189
97.55076111915189
97.55076111915189
97.55076111915189
97.55076111915189
91.82161348066558
91.7450869449848
91.6682767079968
91.59157277717458
91.51525760337057
91.43953446214859
91.3645469405525
91.29039059178513
91.21711989644866
122.97610552087946
122.46798035300553
121.96392449939805
121.46379029362019
120.96733700543797
120.47423119914639
119.98403916324757
119.49621416897138
119.01008300440166
118.52483960272407
118.03956549871079
117.55333645125978
117.06550702967321
116.57604272600948
115.96830242779113
115.36127783876928
114.7549648912579
114.14926461139397
113.54394517196486
112.93858894138782
112.33246347797837
111.72437350510774
111.10702812248456
98.89894833451675
95.62169040019026
94.44309798679676
94.09239075714656
93.96161441655121
93.88347060996882
93.72818285345275
93.32092994460842
91.8188869808879
91.74093132003435
91.66421840339221
91.58757500447754
91.51122373541946
91.43531046084857
91.35996588989566
91.28529315787404
91.21136541224719
91.13822583684868
122.94456642840628
122.43639115779831
121.9322297927746
121.43191649077461
120.93518619270384
120.44167516031321
119.9509090367869
119.46228228058877
118.97503177005751
118.48820810024627
118.00065880653364
117.51110607199179
117.01854321359885
116.52290743487397
115.90672757080625
115.29121203511177
114.67639645684815
114.06214990153589
113.44810914913522
112.83358827947616
112.21739976009684
111.59709664650656
110.96905166002703
99.02608303722499
95.54893466131429
94.37419359238895
94.00839033527114
93.87664147618749
93.7954805962492
93.64044478647291
93.20859036700037
91.74013874699767
91.6619423702807
91.58467859851407
91.50805166455837
91.43189599659401
91.3562503118789
91.28117933329565
91.206746987012
91.13300343967586
91.0599798422589
122.91316978791377
122.4049524492197
121.90070807113239
121.40025072918512
120.90329098844619
120.40943649323434
119.91817497217114
119.4288455796288
118.94059920619914
118.45234648010376
117.96269745877056
117.46997508085038
116.97269151137135
116.47073230362979
115.8459536251708
115.22188830166793