# vtk DataFile Version 2.0
Niestacjonarne zagadnienie cieplne - ogrzewanie wody w garnku stalowym
ASCII
DATASET UNSTRUCTURED_GRID
POINTS 1353 float
0.0 0.0 0.0
0.0 0.0015384615384615385 0.0
0.0 0.003076923076923077 0.0
0.0 0.004615384615384615 0.0
0.0 0.006153846153846154 0.0
0.0 0.007692307692307693 0.0
0.0 0.00923076923076923 0.0
0.0 0.010769230769230769 0.0
0.0 0.012307692307692308 0.0
0.0 0.013846153846153847 0.0
0.0 0.015384615384615385 0.0
0.0 0.016923076923076923 0.0
0.0 0.01846153846153846 0.0
0.0 0.02 0.0
0.0 0.020555555555555556 0.0
0.0 0.021111111111111112 0.0
0.0 0.021666666666666667 0.0
0.0 0.022222222222222223 0.0
0.0 0.02277777777777778 0.0
0.0 0.023333333333333334 0.0
0.0 0.02388888888888889 0.0
0.0 0.024444444444444446 0.0
0.0 0.025 0.0
0.0 0.036111111111111115 0.0
0.0 0.04722222222222222 0.0
0.0 0.058333333333333334 0.0
0.0 0.06944444444444445 0.0
0.0 0.08055555555555556 0.0
0.0 0.09166666666666667 0.0
0.0 0.10277777777777777 0.0
0.0 0.1138888888888889 0.0
0.0 0.125 0.0
0.0 0.12555555555555556 0.0
0.0 0.12611111111111112 0.0
0.0 0.12666666666666668 0.0
0.0 0.1272222222222222 0.0
0.0 0.12777777777777777 0.0
0.0 0.12833333333333333 0.0
0.0 0.1288888888888889 0.0
0.0 0.12944444444444445 0.0
0.0 0.13 0.0
5.555555555555556E-4 0.0 0.0
5.555555555555556E-4 0.0015384615384615385 0.0
5.555555555555556E-4 0.003076923076923077 0.0
5.555555555555556E-4 0.004615384615384615 0.0
5.555555555555556E-4 0.006153846153846154 0.0
5.555555555555556E-4 0.007692307692307693 0.0
5.555555555555556E-4 0.00923076923076923 0.0
5.555555555555556E-4 0.010769230769230769 0.0
5.555555555555556E-4 0.012307692307692308 0.0
5.555555555555556E-4 0.013846153846153847 0.0
5.555555555555556E-4 0.015384615384615385 0.0
5.555555555555556E-4 0.016923076923076923 0.0
5.555555555555556E-4 0.01846153846153846 0.0
5.555555555555556E-4 0.02 0.0
5.555555555555556E-4 0.020555555555555556 0.0
5.555555555555556E-4 0.021111111111111112 0.0
5.555555555555556E-4 0.021666666666666667 0.0
5.555555555555556E-4 0.022222222222222223 0.0
5.555555555555556E-4 0.02277777777777778 0.0
5.555555555555556E-4 0.023333333333333334 0.0
5.555555555555556E-4 0.02388888888888889 0.0
5.555555555555556E-4 0.024444444444444446 0.0
5.555555555555556E-4 0.025 0.0
5.555555555555556E-4 0.036111111111111115 0.0
5.555555555555556E-4 0.04722222222222222 0.0
5.555555555555556E-4 0.058333333333333334 0.0
5.555555555555556E-4 0.06944444444444445 0.0
5.555555555555556E-4 0.08055555555555556 0.0
5.555555555555556E-4 0.09166666666666667 0.0
5.555555555555556E-4 0.10277777777777777 0.0
5.555555555555556E-4 0.1138888888888889 0.0
5.555555555555556E-4 0.125 0.0
5.555555555555556E-4 0.12555555555555556 0.0
5.555555555555556E-4 0.12611111111111112 0.0
5.555555555555556E-4 0.12666666666666668 0.0
5.555555555555556E-4 0.1272222222222222 0.0
5.555555555555556E-4 0.12777777777777777 0.0
5.555555555555556E-4 0.12833333333333333 0.0
5.555555555555556E-4 0.1288888888888889 0.0
5.555555555555556E-4 0.12944444444444445 0.0
5.555555555555556E-4 0.13 0.0
0.0011111111111111111 0.0 0.0
0.0011111111111111111 0.0015384615384615385 0.0
0.0011111111111111111 0.003076923076923077 0.0
0.0011111111111111111 0.004615384615384615 0.0
0.0011111111111111111 0.006153846153846154 0.0
0.0011111111111111111 0.007692307692307693 0.0
0.0011111111111111111 0.00923076923076923 0.0
0.0011111111111111111 0.010769230769230769 0.0
0.0011111111111111111 0.012307692307692308 0.0
0.0011111111111111111 0.013846153846153847 0.0
0.0011111111111111111 0.015384615384615385 0.0
0.0011111111111111111 0.016923076923076923 0.0
0.0011111111111111111 0.01846153846153846 0.0
0.0011111111111111111 0.02 0.0
0.0011111111111111111 0.020555555555555556 0.0
0.0011111111111111111 0.021111111111111112 0.0
0.0011111111111111111 0.021666666666666667 0.0
0.0011111111111111111 0.022222222222222223 0.0
0.0011111111111111111 0.02277777777777778 0.0
0.0011111111111111111 0.023333333333333334 0.0
0.0011111111111111111 0.02388888888888889 0.0
0.0011111111111111111 0.024444444444444446 0.0
0.0011111111111111111 0.025 0.0
0.0011111111111111111 0.036111111111111115 0.0
0.0011111111111111111 0.04722222222222222 0.0
0.0011111111111111111 0.058333333333333334 0.0
0.0011111111111111111 0.06944444444444445 0.0
0.0011111111111111111 0.08055555555555556 0.0
0.0011111111111111111 0.09166666666666667 0.0
0.0011111111111111111 0.10277777777777777 0.0
0.0011111111111111111 0.1138888888888889 0.0
0.0011111111111111111 0.125 0.0
0.0011111111111111111 0.12555555555555556 0.0
0.0011111111111111111 0.12611111111111112 0.0
0.0011111111111111111 0.12666666666666668 0.0
0.0011111111111111111 0.1272222222222222 0.0
0.0011111111111111111 0.12777777777777777 0.0
0.0011111111111111111 0.12833333333333333 0.0
0.0011111111111111111 0.1288888888888889 0.0
0.0011111111111111111 0.12944444444444445 0.0
0.0011111111111111111 0.13 0.0
0.0016666666666666666 0.0 0.0
0.0016666666666666666 0.0015384615384615385 0.0
0.0016666666666666666 0.003076923076923077 0.0
0.0016666666666666666 0.004615384615384615 0.0
0.0016666666666666666 0.006153846153846154 0.0
0.0016666666666666666 0.007692307692307693 0.0
0.0016666666666666666 0.00923076923076923 0.0
0.0016666666666666666 0.010769230769230769 0.0
0.0016666666666666666 0.012307692307692308 0.0
0.0016666666666666666 0.013846153846153847 0.0
0.0016666666666666666 0.015384615384615385 0.0
0.0016666666666666666 0.016923076923076923 0.0
0.0016666666666666666 0.01846153846153846 0.0
0.0016666666666666666 0.02 0.0
0.0016666666666666666 0.020555555555555556 0.0
0.0016666666666666666 0.021111111111111112 0.0
0.0016666666666666666 0.021666666666666667 0.0
0.0016666666666666666 0.022222222222222223 0.0
0.0016666666666666666 0.02277777777777778 0.0
0.0016666666666666666 0.023333333333333334 0.0
0.0016666666666666666 0.02388888888888889 0.0
0.0016666666666666666 0.024444444444444446 0.0
0.0016666666666666666 0.025 0.0
0.0016666666666666666 0.036111111111111115 0.0
0.0016666666666666666 0.04722222222222222 0.0
0.0016666666666666666 0.058333333333333334 0.0
0.0016666666666666666 0.06944444444444445 0.0
0.0016666666666666666 0.08055555555555556 0.0
0.0016666666666666666 0.09166666666666667 0.0
0.0016666666666666666 0.10277777777777777 0.0
0.0016666666666666666 0.1138888888888889 0.0
0.0016666666666666666 0.125 0.0
0.0016666666666666666 0.12555555555555556 0.0
0.0016666666666666666 0.12611111111111112 0.0
0.0016666666666666666 0.12666666666666668 0.0
0.0016666666666666666 0.1272222222222222 0.0
0.0016666666666666666 0.12777777777777777 0.0
0.0016666666666666666 0.12833333333333333 0.0
0.0016666666666666666 0.1288888888888889 0.0
0.0016666666666666666 0.12944444444444445 0.0
0.0016666666666666666 0.13 0.0
0.0022222222222222222 0.0 0.0
0.0022222222222222222 0.0015384615384615385 0.0
0.0022222222222222222 0.003076923076923077 0.0
0.0022222222222222222 0.004615384615384615 0.0
0.0022222222222222222 0.006153846153846154 0.0
0.0022222222222222222 0.007692307692307693 0.0
0.0022222222222222222 0.00923076923076923 0.0
0.0022222222222222222 0.010769230769230769 0.0
0.0022222222222222222 0.012307692307692308 0.0
0.0022222222222222222 0.013846153846153847 0.0
0.0022222222222222222 0.015384615384615385 0.0
0.0022222222222222222 0.016923076923076923 0.0
0.0022222222222222222 0.01846153846153846 0.0
0.0022222222222222222 0.02 0.0
0.0022222222222222222 0.020555555555555556 0.0
0.0022222222222222222 0.021111111111111112 0.0
0.0022222222222222222 0.021666666666666667 0.0
0.0022222222222222222 0.022222222222222223 0.0
0.0022222222222222222 0.02277777777777778 0.0
0.0022222222222222222 0.023333333333333334 0.0
0.0022222222222222222 0.02388888888888889 0.0
0.0022222222222222222 0.024444444444444446 0.0
0.0022222222222222222 0.025 0.0
0.0022222222222222222 0.036111111111111115 0.0
0.0022222222222222222 0.04722222222222222 0.0
0.0022222222222222222 0.058333333333333334 0.0
0.0022222222222222222 0.06944444444444445 0.0
0.0022222222222222222 0.08055555555555556 0.0
0.0022222222222222222 0.09166666666666667 0.0
0.0022222222222222222 0.10277777777777777 0.0
0.0022222222222222222 0.1138888888888889 0.0
0.0022222222222222222 0.125 0.0
0.0022222222222222222 0.12555555555555556 0.0
0.0022222222222222222 0.12611111111111112 0.0
0.0022222222222222222 0.12666666666666668 0.0
0.0022222222222222222 0.1272222222222222 0.0
0.0022222222222222222 0.12777777777777777 0.0
0.0022222222222222222 0.12833333333333333 0.0
0.0022222222222222222 0.1288888888888889 0.0
0.0022222222222222222 0.12944444444444445 0.0
0.0022222222222222222 0.13 0.0
0.002777777777777778 0.0 0.0
0.002777777777777778 0.0015384615384615385 0.0
0.002777777777777778 0.003076923076923077 0.0
0.002777777777777778 0.004615384615384615 0.0
0.002777777777777778 0.006153846153846154 0.0
0.002777777777777778 0.007692307692307693 0.0
0.002777777777777778 0.00923076923076923 0.0
0.002777777777777778 0.010769230769230769 0.0
0.002777777777777778 0.012307692307692308 0.0
0.002777777777777778 0.013846153846153847 0.0
0.002777777777777778 0.015384615384615385 0.0
0.002777777777777778 0.016923076923076923 0.0
0.002777777777777778 0.01846153846153846 0.0
0.002777777777777778 0.02 0.0
0.002777777777777778 0.020555555555555556 0.0
0.002777777777777778 0.021111111111111112 0.0
0.002777777777777778 0.021666666666666667 0.0
0.002777777777777778 0.022222222222222223 0.0
0.002777777777777778 0.02277777777777778 0.0
0.002777777777777778 0.023333333333333334 0.0
0.002777777777777778 0.02388888888888889 0.0
0.002777777777777778 0.024444444444444446 0.0
0.002777777777777778 0.025 0.0
0.002777777777777778 0.036111111111111115 0.0
0.002777777777777778 0.04722222222222222 0.0
0.002777777777777778 0.058333333333333334 0.0
0.002777777777777778 0.06944444444444445 0.0
0.002777777777777778 0.08055555555555556 0.0
0.002777777777777778 0.09166666666666667 0.0
0.002777777777777778 0.10277777777777777 0.0
0.002777777777777778 0.1138888888888889 0.0
0.002777777777777778 0.125 0.0
0.002777777777777778 0.12555555555555556 0.0
0.002777777777777778 0.12611111111111112 0.0
[...]
POINT_DATA 1353
SCALARS Temperatura float 1
LOOKUP_TABLE default
72.01106879046999
71.46229748096933
70.91988347346869
70.38346977686238
69.85274472578399
69.3273363899437
68.80677750781338
68.29046390544725
67.77760099218202
67.26710818355517
66.75751329080033
66.24644708142691
65.73100822584858
65.19718375738897
64.51466039258237
63.85697901732556
63.207047802566315
62.56171194495681
61.91893568041232
61.2773527480631
60.635958084779084
59.994035831243686
59.351157702660814
48.081835803507765
43.98808976220822
42.78498470700685
42.379338653257975
42.24883707887756
42.18882622240639
42.117826493441
41.90952599318599
41.35466983767221
41.32595776535787
41.29784691500705
41.27042356797037
41.24376421108334
41.21793457350095
41.19298891975453
41.16896957487952
41.145906633184445
41.12381779784263
72.02658145906197
71.47769370713692
70.93513580956044
70.39858305594565
69.86772408053065
69.34218969949141
68.82151479967457
68.30509898675564
67.7921505550976
67.28160737621052
66.77196811469182
66.26111391392133
65.74521436741648
65.21673314449295
64.55532539358855
63.89930441607072
63.25020695966506
62.60511268211996
61.96233326889569
61.3205882704809
60.678897407640946
60.03653905305442
59.393066120998625
48.098478299891205
44.01180978372177
42.80840328835193
42.403043769387956
42.272593939776996
42.21261265215515
42.141598079648084
41.933694644081555
41.3773045695393
41.34851443669276
41.32033046560936
41.29283963789969
41.266119002191225
41.24023470234714
41.21524128582863
41.191181256476085
41.16808481167343
41.145969704301706
72.04219259019428
71.4932463206511
70.95058412107579
70.41393206925873
69.88298719889838
69.35738701953515
68.83667377772974
68.32025689399357
67.80736112992975
67.29694657210169
66.78757349365031
66.27719278840215
65.7623087893685
65.23924200179286
64.58720723682846
63.9377806100166
63.29171224742154
62.64848905251974
62.00694497356422
61.36601008823825
60.724752343600485
60.08242066091784
59.43850166485595
48.09080175513815
44.033998046507584
42.832041686726825
42.42840280902452
42.29836510905954
42.23859929901538
42.16767915455378
41.96140623905256
41.401536131057036
41.37256974069634
41.3442232090945
41.31658548143723
41.28973514143575
41.26373942175138
41.23865357551137
41.21452052584794
41.191370694973365
41.16922193482959
72.05793176382848
71.50895658167113
70.96622789434667
70.42951533944877
69.89853175396563
69.37292516752932
68.85224984942074
68.3359317664491
67.8232210704147
67.31311916516454
66.80426930834817
66.29474730764126
65.78176771165661
65.26333645280285
64.61806847082592
63.97435914807749
63.33255049805286
62.69238229630084
62.053155803600426
61.41397361603577
60.7739195712765
60.13215410748877
59.48801868907707
48.05829464846945
44.054910054702766
42.85583137195026
42.455442292493494
42.32614599047681
42.26679389062958
42.1960583468621
41.99268851047971
41.4273551844156
41.39811199226623
41.3695114529465
41.341645869688776
41.31459633949998
41.28843177396069
41.2632084432848
41.23896983486637
41.21574664836115
41.19355684262616
72.07381456523376
71.52482847699257
70.98206590896898
70.44533032185448
69.91435385400736
69.38879875514435
68.86823560878916
68.35211292471199
67.83971498068635
67.33010005327193
66.82200986763785
66.31372317454621
65.80309439621045
65.28882552614445
64.64933422266571
64.01095814714016
63.373755798662145
62.73745942563651
62.10148227645705
61.46499562494814
60.82701860931271
60.186521498537864
59.54256955828782
48.000102954211535
44.07498301232194
42.87965315794239
42.48420722527371
42.35592677506355
42.29720825348858
42.226714655370074
42.027585743570185
41.454744944589194
41.425120273201586
41.39617083491665
41.36799394882744
41.3406741456685
41.314282367100645
41.28887598946573
41.264499042947136
41.241182447812974
41.21894420472177
72.08984958446703
71.54086518081616
70.99809652172497
70.46137331684994
69.93044806414962
69.40500030759075
68.8846207804608
68.36878580544872
67.85682167733401
67.34785489731178
66.84074284938737
66.33400029588603
65.82596812211732
65.31563834969367
64.6815643475252
64.04842253289654
63.41610840829704
62.784303353290724
62.152433721193944
61.51965062157127
60.88482668876244
60.24660284757722
59.603557521646785
47.915001208679044
44.094851901587944
42.90332970766614
42.51476410587149
42.38769122639988
42.32985900166572
42.25961673380563
42.06615946719144
41.48368103747715
41.45356361554521
41.424165209241295
41.39559031123615
41.36792730685696
41.34124897972288
41.3156134991526
41.291065275565664
41.26763521281357
41.245341179707594
72.10604121477263
71.55706818007481
71.01431734709286
70.47763949012082
69.94680743627424
69.42152035501184
68.90139241353775
68.38593225757417
67.8745146291385
67.36634289265577
66.86040303185146
66.35544520246422
65.8501689995299
65.34370861095343
64.71498075423784
64.0871493130036
63.46003150241699
62.833289028716436
62.20636819327156
61.57842257161401
60.948158515040774
60.31374444568244
59.67292724250275
47.80134683920695
44.1153737870415
42.92661434202436
42.5472054157658
42.421414865240685
42.36476855139399
42.2947218720518
42.10848938851957
41.51413147666414
41.483398949572525
41.453444467082576
41.424381477664404
41.3963012178561
41.369276000902325
41.34336513146705
41.318612797573834
41.2950493866694
41.27269232227097
72.12239093411571
71.57343716900276
71.03072499296373
70.49412286667844
69.96342356095518
69.43834754866639
68.91853510884641
68.40353086358157
67.89276286686133
67.38551751570435
66.88091593244354
66.37792859755329
65.87552884965386
65.37295335873817
64.74963758244805
64.12727800953766
63.5056774281108
62.88453000823158
62.263365719312276
61.64145672470893
61.01762675037949
60.389444047124734
59.7533187936917
47.65700984798759
44.13766296074938
42.949175216022795
42.581655943122136
42.45706241764826
42.401966514509475
42.33197467113507
42.15467446916566
41.5460572129903
41.51456547804656
41.483937472429425
41.454301581673086
41.42572657317504
41.398293740235154
41.37206163706977
41.347072984328385
41.32335683446868
41.300929719486675
72.13889798750722
71.58997015601412
71.04731492612459
70.51081632018465
69.98028663420546
69.45546879983857
68.9360312611878
68.42155736058379
67.91153179268646
67.40532757812304
66.90220209364333
66.40132870738759
65.90190479809675
65.40327108793275
64.78548711313249
64.16878181350319
63.552988354482316
62.93788154837608
62.323148819854815
61.70833978413229
61.09273478966677
60.47522491574669
59.84832917938978
47.47926447203625
44.16314124786986
42.97057336907876
42.61828147714123
42.49458434450801
42.44149146780035
42.37130570566331
42.20483289863474
41.5794179652858
41.5469099796969
41.51558669323614
41.48526561796619
41.45611762616696
41.428217769690036
41.40162028859646
41.376364505619875
41.352477139052446
41.32997331858847
72.15555980930311
71.60666362062801
71.06408143385282
70.5277115783797
69.99738553604038
69.4728694342398
68.95386132195239
68.43998509835602
67.93078394634202
67.42571856231154
66.92417997931024
66.4255300819933
65.92916565207057
65.43454475391513
64.82241731030345
64.21152567185945
63.60175646747483
62.99299003111799
62.385110396743315
61.778031873663124
61.171759412521546
60.56651170420046
44.536457561732966
44.536457561732966
44.536457561732966
44.536457561732966
44.536457561732966
44.536457561732966
44.536457561732966
44.536457561732966
44.536457561732966
44.536457561732966
41.58063495619672
41.5482742151698
41.51716479705296
41.487370648759146
41.458948946334154
41.4319452637157
41.40639383831003
41.382318163058486
41.35973150231234
72.49314091305357
71.94537451043698
71.40567898142199
70.87411184566463
70.3507695782728
69.83579682422962
69.3294014840657
68.83187680645119
68.34363185749565
67.8652319378747
67.39745021510953
66.9413318132475
66.49827719684937
66.0701694502566
65.55110341935497
65.03598847888533
64.52533888925727
64.01969933892123
63.51964958746492
63.025805191316934
62.5388096153223
62.059309631955294
44.536457561732966
44.536457561732966
44.536457561732966
44.536457561732966
44.536457561732966
44.536457561732966
44.536457561732966
44.536457561732966
44.536457561732966
44.536457561732966
42.222566416566245
42.17128987489257
42.124187011121116
42.08111540644784
42.04195677987308
42.006616393607906
41.97502147817593
41.947119932945064
41.92287938606801
72.81228410277079
72.26530117321624
71.72742562825458
71.19869963049912
70.67918804209086
70.16897716275923
69.66817192361475
69.17689059229774
68.69525556185327
68.22337814259318
67.76133450789168
67.30912876485642
66.86663590582626
66.43350978699257
65.90287260689387
65.37441844309905
64.84797542193591
64.32334996905014
63.80032090834181
63.27863410094982
62.75799880778955
62.238087929746285
44.536457561732966
44.536457561732966
44.536457561732966
44.536457561732966
44.536457561732966
44.536457561732966
44.536457561732966
44.536457561732966
44.536457561732966
44.536457561732966
42.39370587606723
42.35404371817895
42.316481519909615
42.281097481170356
42.24795415620901
42.21709990609068
42.18857033565045
42.16238940411064
42.13857020803382
73.06728411577778
72.52051579885624
71.98285267356238
71.45430339191819
70.93487643856871
70.42457883090957
69.92341448160326
69.4313824403836
68.94847543411423
68.47467945461965
68.0099756403353
67.55434651679528
67.10779037547468
66.67035111823762
66.13456161616611
65.60121727226695
65.07036055197673
64.54204265660023
64.01632657158557
63.49329023799383
62.97302959351333
62.455660960205776
44.536457561732966
44.536457561732966
44.536457561732966
44.536457561732966
44.536457561732966
44.536457561732966
44.536457561732966
44.536457561732966
44.536457561732966
44.536457561732966
42.45714638633817
42.41714887011219
42.3795181948381
42.34422680649832
42.31125290236146
42.28057951219491
42.252193706916735
42.226086001681026
42.202249941099836
73.25234597934029
72.70562580119284
72.16780053099077
71.63887476913396
71.11885139188647
70.60773170345497
70.10551567896617
69.61220231462916
69.12779006010337
68.65227721598019
68.18566200675083
67.72794171069988
67.2791095247583
66.8391463776075
66.29997986338667
65.76316054246097
65.2286752430406
64.69650767290224
64.16663720007261
63.63903749590661
63.1136750777712
62.59050785997424
44.536457561732966
44.536457561732966
44.536457561732966
44.536457561732966
44.536457561732966
44.536457561732966
44.536457561732966
44.536457561732966
44.536457561732966
44.536457561732966
42.47611662253938
42.436970936888876
42.400002025864694
42.365217285075
42.33262181047673
42.302218816293205
42.27400997501797
42.24799566928543
42.22417516474539
73.37636241215577
72.82966583773221
72.29170701112936
71.76249079739928
71.24202049605306
70.73029781767434
70.22732283442102
69.73309388768878
69.24760744002751
68.77085787568531
68.30283729766167
67.84353546979584
67.39294029176952
66.95103972845166
66.40936614602029
65.87003441376075
65.33304527801475
64.79840041097852
64.26610284499942
63.7361574807383
63.20857167171827
62.68335587001787
44.536457561732966
44.536457561732966
44.536457561732966
44.536457561732966
44.536457561732966
44.536457561732966
44.536457561732966
44.536457561732966
44.536457561732966
44.536457561732966
42.482601125342576
42.4435046014758
42.40660191299836
42.371888471821755
42.33936037390228
42.30901423120772
42.28084703993527
42.25485608451599
42.231038872569485
73.44751631909962
72.90083219350562
72.36279337117016
71.83340462847649
71.31266917614641
70.80058865752473
70.29716315213963
69.80239119124943
69.3162697937149
68.83879452965596
68.36995961153733
67.90975798602958
67.45818132436482
67.01521962014685
66.47217403648916
65.93145843539075
65.39307061536951
64.85700801837177
64.3232675758145
63.79184551977269
63.262737153279865
62.73593657778677
44.536457561732966
44.536457561732966
44.536457561732966
44.536457561732966
44.536457561732966
44.536457561732966
44.536457561732966
44.536457561732966
44.536457561732966
44.536457561732966
42.48457177093981
42.445544269582356
42.40869425884563
42.37402064109296
42.34152202327986
42.311196783483034
42.283043121483416
42.25705909494317
42.233242643578116
73.47069733361865
72.92401709560728
72.38595172985495
71.85650605294298
71.33568336622109
70.82348546176146
70.3199126291259
69.8249636596858
69.33863584349496
68.86092495243157
68.39182520476255
67.9313292169655
67.47942798679561
67.03611105720839
66.49260434528928
65.95142473681811
65.41257094485219
64.87604180351974
64.34183635653456
63.80995396902639
63.2803944681432
62.75315831639816
44.536457561732966
44.536457561732966
44.536457561732966
44.536457561732966
44.536457561732966
44.536457561732966
44.536457561732966
44.536457561732966
44.536457561732966
44.536457561732966
42.48503287699608
42.446008832151186
42.40916434733603
42.374496962010305
42.34200432897273
42.31168417330198
42.283534261734886
42.25755238105232
42.2337363238005
73.44751631910002
72.900832193506
72.36279337117053
71.83340462847684
71.31266917614673
70.80058865752498
70.29716315213987
69.80239119124971
69.3162697937152
68.83879452965628
68.36995961153767
67.90975798602993
67.45818132436517
67.0152196201472
66.47217403648952
65.9314584353911
65.39307061536984
64.85700801837207
64.3232675758148
63.79184551977297
63.26273715328014
62.73593657778705
44.536457561732966
44.536457561732966
44.536457561732966
44.536457561732966
44.536457561732966
44.536457561732966
44.536457561732966
44.536457561732966
44.536457561732966
44.536457561732966
42.48457177094019
42.445544269582754
42.40869425884603
42.37402064109338
42.34152202328028
42.311196783483474
42.28304312148386
42.25705909494361
42.233242643578556
73.37636241215642
72.82966583773286
72.29170701113001
71.7624907973999
71.24202049605368
70.73029781767498
70.22732283442163
69.73309388768936
69.24760744002809
68.77085787568588
68.30283729766221
67.8435354697964
67.39294029177007
66.95103972845224
66.40936614602086
65.8700344137613
65.3330452780153
64.79840041097906
64.26610284499996
63.73615748073885
63.20857167171882
62.683355870018396
44.536457561732966
44.536457561732966
44.536457561732966
44.536457561732966
44.536457561732966
44.536457561732966
44.536457561732966
44.536457561732966
44.536457561732966
44.536457561732966
42.48260112534353
42.44350460147677
42.406601912999356
42.37188847182277
42.33936037390329
42.30901423120871
42.28084703993626
42.25485608451701
42.2310388725705
73.25234597934077
72.70562580119328
72.1678005309912
71.63887476913438
71.11885139188686
70.60773170345534
70.1055156789665
69.61220231462946
69.12779006010366
68.65227721598049
68.18566200675119
67.72794171070026
67.27910952475871
66.83914637760793
66.29997986338711
65.76316054246142
65.22867524304105
64.69650767290265
64.16663720007294
63.63903749590687
63.113675077771425
62.590507859974444
44.536457561732966
44.536457561732966
44.536457561732966
44.536457561732966
44.536457561732966
44.536457561732966
44.536457561732966
44.536457561732966
44.536457561732966
44.536457561732966
42.476116622541845
42.43697093689141
42.40000202586726
42.36521728507757
42.3326218104793
42.30221881629575
42.27400997502045
42.247995669287846
42.22417516474779
73.0672841157781
72.52051579885658
71.98285267356276
71.45430339191859
70.93487643856909
70.42457883090994
69.92341448160366
69.43138244038401
68.94847543411466
68.47467945462006
68.0099756403357
67.55434651679565
67.10779037547505
66.67035111823797
66.13456161616645
65.60121727226725
65.07036055197705
64.54204265660059
64.01632657158599
63.493290237994295
62.9730295935138
62.45566096020623
44.536457561732966
44.536457561732966
44.536457561732966
44.536457561732966
44.536457561732966
44.536457561732966
44.536457561732966
44.536457561732966
44.536457561732966
44.536457561732966
42.457146386340185
42.41714887011423
42.37951819484019
42.34422680650046
42.31125290236362
42.2805795121971
42.25219370691896
42.22608600168328
42.2022499411021
72.81228410277056
72.26530117321602
71.72742562825434
71.19869963049885
70.67918804209059
70.168977162759
69.66817192361452
69.17689059229751
68.69525556185302
68.22337814259295
67.76133450789153
67.30912876485633
66.86663590582616
66.43350978699249
65.90287260689381
65.374418443099
64.84797542193586
64.3233499690501
63.800320908341725
63.27863410094971
62.75799880778941
62.23808792974611
44.536457561732966
44.536457561732966
44.536457561732966
44.536457561732966
44.536457561732966
44.536457561732966
44.536457561732966
44.536457561732966
44.536457561732966
44.536457561732966
42.39370587606874
42.35404371818049
42.31648151991116
42.28109748117189
42.24795415621055
42.21709990609223
42.18857033565196
42.162389404112126
42.138570208035304
72.49314091305301
71.94537451043644
71.40567898142147
70.87411184566413
70.35076957827229
69.83579682422912
69.32940148406524
68.83187680645075
68.34363185749521
67.8652319378743
67.39745021510919
66.94133181324723
66.49827719684913
66.07016945025639
65.5511034193548
65.03598847888516
64.52533888925711
64.01969933892106
63.51964958746474
63.025805191316756
62.53880961532211
62.0593096319551
44.536457561732966
44.536457561732966
44.536457561732966
44.536457561732966
44.536457561732966
44.536457561732966
44.536457561732966
44.536457561732966
44.536457561732966
44.536457561732966
42.222566416567254
42.1712898748936
42.124187011122174
42.08111540644893
42.04195677987419
42.00661639360902
41.97502147817706
41.94711993294622
41.92287938606916
72.15555980930237
71.6066636206273
71.0640814338522
70.52771157837915
69.99738553603996
69.47286943423947
68.95386132195208
68.43998509835573
67.93078394634173
67.42571856231125
66.92417997930987
66.42553008199293
65.92916565207025
65.43454475391488
64.82241731030328
64.2115256718594
63.60175646747487
62.99299003111814
62.38511039674354
61.77803187366341
61.17175941252191
60.56651170420085
44.536457561732966
44.536457561732966
44.536457561732966
44.536457561732966
44.536457561732966
44.536457561732966
44.536457561732966
44.536457561732966
44.536457561732966
44.536457561732966
41.580634956197905
41.54827421517101
41.5171647970542
41.4873706487604
41.458948946335425
41.43194526371697
41.40639383831129
41.38231816305969
41.35973150231356
72.13889798750641
71.58997015601332
71.04731492612395
70.51081632018412
69.98028663420509
69.45546879983824
68.93603126118744
68.42155736058356
67.91153179268618
67.4053275781227
66.90220209364293
66.40132870738724
65.90190479809645
65.40327108793254
64.7854871131323
64.16878181350313
63.552988354482366
62.93788154837623
62.32314881985506
61.70833978413262
61.09273478966709
60.47522491574709
59.84832917939022
47.47926447203734
44.163141247869774
42.97057336907869
42.618281477141906
42.494584344508326
42.44149146780076
42.371305705663744
42.20483289863419
41.579417965286915
41.546909979698064
41.51558669323732
41.48526561796738
41.456117626168165
41.428217769691216
41.401620288597655
41.376364505621076
41.35247713905368
41.329973318589666
72.12239093411488
71.57343716900196
71.03072499296312
70.49412286667797
69.96342356095481
69.43834754866606
68.9185351088461
68.4035308635813
67.89276286686106
67.38551751570405
66.8809159324432
66.37792859755292
65.87552884965355
65.37295335873797
64.74963758244789
64.12727800953762
63.50567742811084
62.884530008231685
62.263365719312496
61.6414567247092
61.01762675037982
60.38944404712514
59.75331879369211
47.65700984798871
44.13766296074936
42.94917521602279
42.581655943122804
42.4570624176486
42.40196651450992
42.33197467113556
42.154674469165094
41.546057212991435
41.51456547804771
41.48393747243059
41.45430158167426
41.42572657317621
41.39829374023631
41.372061637070935
41.34707298432954
41.323356834469855
41.300929719487826
72.10604121477178
71.55706818007405
71.01431734709223
70.47763949012031
69.94680743627391
69.4215203550115
68.9013924135374
68.3859322575739
67.87451462913828
67.36634289265544
66.86040303185109
66.35544520246391
65.85016899952954
65.34370861095327
64.71498075423773
64.08714931300354
63.46003150241701
62.833289028716564
62.20636819327179
61.5784225716143
60.94815851504112
60.31374444568286
59.6729272425032
47.80134683920808
44.11537378704155
42.92661434202443
42.54720541576645
42.42141486524105
42.36476855139446
42.29472187205235
42.10848938851901