# vtk DataFile Version 2.0
Niestacjonarne zagadnienie cieplne - ogrzewanie wody w garnku stalowym
ASCII
DATASET UNSTRUCTURED_GRID
POINTS 1353 float
0.0 0.0 0.0
0.0 0.0015384615384615385 0.0
0.0 0.003076923076923077 0.0
0.0 0.004615384615384615 0.0
0.0 0.006153846153846154 0.0
0.0 0.007692307692307693 0.0
0.0 0.00923076923076923 0.0
0.0 0.010769230769230769 0.0
0.0 0.012307692307692308 0.0
0.0 0.013846153846153847 0.0
0.0 0.015384615384615385 0.0
0.0 0.016923076923076923 0.0
0.0 0.01846153846153846 0.0
0.0 0.02 0.0
0.0 0.020555555555555556 0.0
0.0 0.021111111111111112 0.0
0.0 0.021666666666666667 0.0
0.0 0.022222222222222223 0.0
0.0 0.02277777777777778 0.0
0.0 0.023333333333333334 0.0
0.0 0.02388888888888889 0.0
0.0 0.024444444444444446 0.0
0.0 0.025 0.0
0.0 0.036111111111111115 0.0
0.0 0.04722222222222222 0.0
0.0 0.058333333333333334 0.0
0.0 0.06944444444444445 0.0
0.0 0.08055555555555556 0.0
0.0 0.09166666666666667 0.0
0.0 0.10277777777777777 0.0
0.0 0.1138888888888889 0.0
0.0 0.125 0.0
0.0 0.12555555555555556 0.0
0.0 0.12611111111111112 0.0
0.0 0.12666666666666668 0.0
0.0 0.1272222222222222 0.0
0.0 0.12777777777777777 0.0
0.0 0.12833333333333333 0.0
0.0 0.1288888888888889 0.0
0.0 0.12944444444444445 0.0
0.0 0.13 0.0
5.555555555555556E-4 0.0 0.0
5.555555555555556E-4 0.0015384615384615385 0.0
5.555555555555556E-4 0.003076923076923077 0.0
5.555555555555556E-4 0.004615384615384615 0.0
5.555555555555556E-4 0.006153846153846154 0.0
5.555555555555556E-4 0.007692307692307693 0.0
5.555555555555556E-4 0.00923076923076923 0.0
5.555555555555556E-4 0.010769230769230769 0.0
5.555555555555556E-4 0.012307692307692308 0.0
5.555555555555556E-4 0.013846153846153847 0.0
5.555555555555556E-4 0.015384615384615385 0.0
5.555555555555556E-4 0.016923076923076923 0.0
5.555555555555556E-4 0.01846153846153846 0.0
5.555555555555556E-4 0.02 0.0
5.555555555555556E-4 0.020555555555555556 0.0
5.555555555555556E-4 0.021111111111111112 0.0
5.555555555555556E-4 0.021666666666666667 0.0
5.555555555555556E-4 0.022222222222222223 0.0
5.555555555555556E-4 0.02277777777777778 0.0
5.555555555555556E-4 0.023333333333333334 0.0
5.555555555555556E-4 0.02388888888888889 0.0
5.555555555555556E-4 0.024444444444444446 0.0
5.555555555555556E-4 0.025 0.0
5.555555555555556E-4 0.036111111111111115 0.0
5.555555555555556E-4 0.04722222222222222 0.0
5.555555555555556E-4 0.058333333333333334 0.0
5.555555555555556E-4 0.06944444444444445 0.0
5.555555555555556E-4 0.08055555555555556 0.0
5.555555555555556E-4 0.09166666666666667 0.0
5.555555555555556E-4 0.10277777777777777 0.0
5.555555555555556E-4 0.1138888888888889 0.0
5.555555555555556E-4 0.125 0.0
5.555555555555556E-4 0.12555555555555556 0.0
5.555555555555556E-4 0.12611111111111112 0.0
5.555555555555556E-4 0.12666666666666668 0.0
5.555555555555556E-4 0.1272222222222222 0.0
5.555555555555556E-4 0.12777777777777777 0.0
5.555555555555556E-4 0.12833333333333333 0.0
5.555555555555556E-4 0.1288888888888889 0.0
5.555555555555556E-4 0.12944444444444445 0.0
5.555555555555556E-4 0.13 0.0
0.0011111111111111111 0.0 0.0
0.0011111111111111111 0.0015384615384615385 0.0
0.0011111111111111111 0.003076923076923077 0.0
0.0011111111111111111 0.004615384615384615 0.0
0.0011111111111111111 0.006153846153846154 0.0
0.0011111111111111111 0.007692307692307693 0.0
0.0011111111111111111 0.00923076923076923 0.0
0.0011111111111111111 0.010769230769230769 0.0
0.0011111111111111111 0.012307692307692308 0.0
0.0011111111111111111 0.013846153846153847 0.0
0.0011111111111111111 0.015384615384615385 0.0
0.0011111111111111111 0.016923076923076923 0.0
0.0011111111111111111 0.01846153846153846 0.0
0.0011111111111111111 0.02 0.0
0.0011111111111111111 0.020555555555555556 0.0
0.0011111111111111111 0.021111111111111112 0.0
0.0011111111111111111 0.021666666666666667 0.0
0.0011111111111111111 0.022222222222222223 0.0
0.0011111111111111111 0.02277777777777778 0.0
0.0011111111111111111 0.023333333333333334 0.0
0.0011111111111111111 0.02388888888888889 0.0
0.0011111111111111111 0.024444444444444446 0.0
0.0011111111111111111 0.025 0.0
0.0011111111111111111 0.036111111111111115 0.0
0.0011111111111111111 0.04722222222222222 0.0
0.0011111111111111111 0.058333333333333334 0.0
0.0011111111111111111 0.06944444444444445 0.0
0.0011111111111111111 0.08055555555555556 0.0
0.0011111111111111111 0.09166666666666667 0.0
0.0011111111111111111 0.10277777777777777 0.0
0.0011111111111111111 0.1138888888888889 0.0
0.0011111111111111111 0.125 0.0
0.0011111111111111111 0.12555555555555556 0.0
0.0011111111111111111 0.12611111111111112 0.0
0.0011111111111111111 0.12666666666666668 0.0
0.0011111111111111111 0.1272222222222222 0.0
0.0011111111111111111 0.12777777777777777 0.0
0.0011111111111111111 0.12833333333333333 0.0
0.0011111111111111111 0.1288888888888889 0.0
0.0011111111111111111 0.12944444444444445 0.0
0.0011111111111111111 0.13 0.0
0.0016666666666666666 0.0 0.0
0.0016666666666666666 0.0015384615384615385 0.0
0.0016666666666666666 0.003076923076923077 0.0
0.0016666666666666666 0.004615384615384615 0.0
0.0016666666666666666 0.006153846153846154 0.0
0.0016666666666666666 0.007692307692307693 0.0
0.0016666666666666666 0.00923076923076923 0.0
0.0016666666666666666 0.010769230769230769 0.0
0.0016666666666666666 0.012307692307692308 0.0
0.0016666666666666666 0.013846153846153847 0.0
0.0016666666666666666 0.015384615384615385 0.0
0.0016666666666666666 0.016923076923076923 0.0
0.0016666666666666666 0.01846153846153846 0.0
0.0016666666666666666 0.02 0.0
0.0016666666666666666 0.020555555555555556 0.0
0.0016666666666666666 0.021111111111111112 0.0
0.0016666666666666666 0.021666666666666667 0.0
0.0016666666666666666 0.022222222222222223 0.0
0.0016666666666666666 0.02277777777777778 0.0
0.0016666666666666666 0.023333333333333334 0.0
0.0016666666666666666 0.02388888888888889 0.0
0.0016666666666666666 0.024444444444444446 0.0
0.0016666666666666666 0.025 0.0
0.0016666666666666666 0.036111111111111115 0.0
0.0016666666666666666 0.04722222222222222 0.0
0.0016666666666666666 0.058333333333333334 0.0
0.0016666666666666666 0.06944444444444445 0.0
0.0016666666666666666 0.08055555555555556 0.0
0.0016666666666666666 0.09166666666666667 0.0
0.0016666666666666666 0.10277777777777777 0.0
0.0016666666666666666 0.1138888888888889 0.0
0.0016666666666666666 0.125 0.0
0.0016666666666666666 0.12555555555555556 0.0
0.0016666666666666666 0.12611111111111112 0.0
0.0016666666666666666 0.12666666666666668 0.0
0.0016666666666666666 0.1272222222222222 0.0
0.0016666666666666666 0.12777777777777777 0.0
0.0016666666666666666 0.12833333333333333 0.0
0.0016666666666666666 0.1288888888888889 0.0
0.0016666666666666666 0.12944444444444445 0.0
0.0016666666666666666 0.13 0.0
0.0022222222222222222 0.0 0.0
0.0022222222222222222 0.0015384615384615385 0.0
0.0022222222222222222 0.003076923076923077 0.0
0.0022222222222222222 0.004615384615384615 0.0
0.0022222222222222222 0.006153846153846154 0.0
0.0022222222222222222 0.007692307692307693 0.0
0.0022222222222222222 0.00923076923076923 0.0
0.0022222222222222222 0.010769230769230769 0.0
0.0022222222222222222 0.012307692307692308 0.0
0.0022222222222222222 0.013846153846153847 0.0
0.0022222222222222222 0.015384615384615385 0.0
0.0022222222222222222 0.016923076923076923 0.0
0.0022222222222222222 0.01846153846153846 0.0
0.0022222222222222222 0.02 0.0
0.0022222222222222222 0.020555555555555556 0.0
0.0022222222222222222 0.021111111111111112 0.0
0.0022222222222222222 0.021666666666666667 0.0
0.0022222222222222222 0.022222222222222223 0.0
0.0022222222222222222 0.02277777777777778 0.0
0.0022222222222222222 0.023333333333333334 0.0
0.0022222222222222222 0.02388888888888889 0.0
0.0022222222222222222 0.024444444444444446 0.0
0.0022222222222222222 0.025 0.0
0.0022222222222222222 0.036111111111111115 0.0
0.0022222222222222222 0.04722222222222222 0.0
0.0022222222222222222 0.058333333333333334 0.0
0.0022222222222222222 0.06944444444444445 0.0
0.0022222222222222222 0.08055555555555556 0.0
0.0022222222222222222 0.09166666666666667 0.0
0.0022222222222222222 0.10277777777777777 0.0
0.0022222222222222222 0.1138888888888889 0.0
0.0022222222222222222 0.125 0.0
0.0022222222222222222 0.12555555555555556 0.0
0.0022222222222222222 0.12611111111111112 0.0
0.0022222222222222222 0.12666666666666668 0.0
0.0022222222222222222 0.1272222222222222 0.0
0.0022222222222222222 0.12777777777777777 0.0
0.0022222222222222222 0.12833333333333333 0.0
0.0022222222222222222 0.1288888888888889 0.0
0.0022222222222222222 0.12944444444444445 0.0
0.0022222222222222222 0.13 0.0
0.002777777777777778 0.0 0.0
0.002777777777777778 0.0015384615384615385 0.0
0.002777777777777778 0.003076923076923077 0.0
0.002777777777777778 0.004615384615384615 0.0
0.002777777777777778 0.006153846153846154 0.0
0.002777777777777778 0.007692307692307693 0.0
0.002777777777777778 0.00923076923076923 0.0
0.002777777777777778 0.010769230769230769 0.0
0.002777777777777778 0.012307692307692308 0.0
0.002777777777777778 0.013846153846153847 0.0
0.002777777777777778 0.015384615384615385 0.0
0.002777777777777778 0.016923076923076923 0.0
0.002777777777777778 0.01846153846153846 0.0
0.002777777777777778 0.02 0.0
0.002777777777777778 0.020555555555555556 0.0
0.002777777777777778 0.021111111111111112 0.0
0.002777777777777778 0.021666666666666667 0.0
0.002777777777777778 0.022222222222222223 0.0
0.002777777777777778 0.02277777777777778 0.0
0.002777777777777778 0.023333333333333334 0.0
0.002777777777777778 0.02388888888888889 0.0
0.002777777777777778 0.024444444444444446 0.0
0.002777777777777778 0.025 0.0
0.002777777777777778 0.036111111111111115 0.0
0.002777777777777778 0.04722222222222222 0.0
0.002777777777777778 0.058333333333333334 0.0
0.002777777777777778 0.06944444444444445 0.0
0.002777777777777778 0.08055555555555556 0.0
0.002777777777777778 0.09166666666666667 0.0
0.002777777777777778 0.10277777777777777 0.0
0.002777777777777778 0.1138888888888889 0.0
0.002777777777777778 0.125 0.0
0.002777777777777778 0.12555555555555556 0.0
0.002777777777777778 0.12611111111111112 0.0
[...]
POINT_DATA 1353
SCALARS Temperatura float 1
LOOKUP_TABLE default
78.50024101923039
77.95666408751599
77.41913486300267
76.88729072873286
76.36081031642568
75.8393070614157
75.32229269416328
74.80913313500876
74.29899100662972
73.79072098797022
73.28275524501831
72.77253320719929
72.25693035476299
71.72014878375525
71.0309403160766
70.37003466873722
69.7179538244248
69.07116519703116
68.42741380096251
67.78520468414008
67.14344486043962
66.50135360507785
65.8584516901131
54.600183694996794
50.511245685831796
49.30919953495846
48.9035853725388
48.772037744346065
48.70833559819812
48.62623872208616
48.3803927776781
47.722023891049375
47.687192596962284
47.652937139435544
47.61934052817774
47.58647492867306
47.55440149355737
47.52317025638204
47.49282004428493
47.46337839455445
47.43486148118662
78.51768478009352
77.9739930651656
77.43632175336407
76.90434053517795
76.37772839145663
75.85610159373616
75.33897415032942
74.82571608317174
74.31549303614675
73.8071804410242
73.29917658018043
72.7892068850535
72.27308227390103
71.74242272766736
71.07742908946366
70.41847784719778
69.76740597633732
69.12094983772265
68.47725366600949
67.83492340751614
67.19289822783081
66.55039546832046
65.90691939852628
54.623473044526676
50.54159424026341
49.339248885564416
48.933920820040896
48.80242543227159
48.73875526056377
48.656641869986615
48.41125297218054
47.75114017965344
47.71622542338962
47.68189239825862
47.64822433358921
47.615293539871
47.583161277250014
47.551877671447144
47.52148163231463
47.49200076479168
47.46345128587876
78.5352265562769
77.99147820835714
77.45370509200588
76.92162776803723
76.39493377263773
75.8732463328564
75.356087268519
74.84283714174178
74.33267956301779
73.8245142178356
73.31680831789129
72.80736508215645
72.2923760765315
71.76788216821332
71.11358839322031
70.46215909436756
69.81453011284144
69.17019417197653
68.52789773554996
67.88649554312995
67.24499337727795
66.60258933879469
65.9587277206258
54.6224068685689
50.57032821743522
49.3694376001743
48.96582878521633
48.83474908713202
48.771309410642004
48.689307254854306
48.445807751979714
47.78179371654945
47.746699510563815
47.71220365886107
47.678389831125756
47.64533058496599
47.613087355143875
47.58171043788484
47.55123892040068
47.521700565986976
47.493111695888125
78.55289584036439
78.00912068659588
77.47128426417672
76.93915082971097
76.41242397862763
75.89073789243807
75.37362713699282
74.86049005961766
74.35053786343418
73.8427155675159
73.33558272812087
72.8270819898911
72.31421405916142
71.79495024514935
71.14829997857434
70.50331141567719
69.86045358567002
69.21951127482757
68.57977256621739
67.9403022204833
67.30014364571052
66.65841958081919
66.01443778468348
54.596473016985335
50.59770290369312
49.399697116797505
48.99933571994243
48.86900383760617
48.806006262127156
48.724221308150504
48.48408898415127
47.81397053820299
47.77860016294705
47.743855838441135
47.709821735993366
47.6765706282041
47.644164121828304
47.61265275985416
47.58207593989498
47.5524617153323
47.52382659873807
78.57070807299553
78.02692433658008
77.4890578822855
76.95690697611815
76.43019486468586
75.90857053980599
75.39158586024654
74.87866338160052
74.36905133287495
73.86175711677927
73.35544931637894
72.848297900277
72.33803014052056
71.82340913447842
71.18319650340077
70.5441319710182
69.90635969777824
69.26965809593197
68.6334507842184
67.99689690866333
67.35899327733166
66.71868503989381
66.07501277078875
54.54481656672235
50.624155163360435
49.42990825976055
49.034486573440105
48.90517945426191
48.84285853907074
48.76135930104306
48.52614793774772
47.847645760550705
47.81190150815914
47.776822673376174
47.742493664648734
47.70898715955582
47.6763648047709
47.64467751889613
47.61396525250759
47.58425657031205
47.555568299604985
78.58867164368
78.04489212446796
77.50702407158333
76.97489223220987
76.44824064687799
75.92673632979314
75.40995248971078
74.89734151023077
74.38819714266215
73.8816014483659
73.3763507231808
72.8708787187606
72.36346120077253
71.85318219780206
71.21892485236963
70.58559479270635
69.95314698052397
69.32130109828937
68.68950016572374
68.05689525189288
67.42234874597901
66.78448642976163
66.14187001738472
54.46621104588767
50.65031947564146
49.45989375547864
49.07134780465246
48.94325911048861
48.88188423190606
48.80068447435093
48.57205629521832
47.88278270021069
47.84656585932201
47.811066439723284
47.776368236191864
47.74254279298996
47.70965157457036
47.6777462181909
47.646867820175515
47.61704577035212
47.588297356523356
78.60679069105531
78.06302527320973
77.52518015326088
76.9931014158125
76.46655393819148
75.94522520503693
75.4287132384089
74.91650503382967
74.40794672673117
73.90220425388603
73.39821551125654
72.89467597471332
72.39026118347384
71.88420127627629
71.25575027451183
70.62816856531595
70.00131534837381
69.37488213596995
68.74833153947127
68.12082168024719
67.49105539629852
66.85719287742116
66.21697070024643
54.35901292909041
50.67705219374786
49.489407053131416
49.11001188025449
48.98321752989942
48.9231077146608
48.84214677900677
48.62190760950974
47.919331578708764
47.88254234199945
47.846537716366434
47.81139754049327
47.7771900816896
47.743975580044115
47.71180880860438
47.68073276944365
47.65077799387509
47.62196233896829
78.62506638673766
78.08132315963235
77.54352238333145
77.01152813615244
76.48512580763864
75.96402512381174
75.44785173171299
74.93613108022933
74.42826680285515
73.92351516024183
73.42096228903094
72.9195468911106
72.41824479827164
71.91638215191479
71.29375149100689
70.67203601557158
70.05106828700269
69.43056482027094
68.81006919076904
68.1888588097128
67.56575573851053
66.93832565401476
66.30297302907427
54.22109146575685
50.70546664883525
49.51811651151841
49.15060361173698
49.02501838004457
48.96656128898527
48.88568118570844
48.67581922959748
47.957227842415215
47.91976370007578
47.88317260398425
47.847528941076376
47.81287164463154
47.779276628622604
47.7468032689365
47.71549701547857
47.685389630104716
47.65649951857807
78.64349762038435
78.09978342427704
77.5620458218054
77.03016478839908
76.50394585504623
75.98312221257515
75.46734927333267
74.95619378186186
74.44912027510772
73.94547890160635
73.444504568307
72.94535815688913
72.44725711249707
71.94962196784527
71.33289579411992
70.71719821763149
70.10238323027795
69.48824178628303
68.87447162049435
68.26062648876969
67.64598498763583
67.02942701761596
66.40349335435242
54.049720378258826
50.73698343986799
49.54558345277866
49.193288872007614
49.0686107233067
49.01228717230552
48.93120579446353
48.733933655133036
47.996394117505915
47.958073393017116
47.92094548855334
47.88470150397394
47.849519008742895
47.81548212771451
47.78265488273626
47.751084755824195
47.720804400741805
47.69183253299957
78.66208142509457
78.11840213166421
77.58074429841231
77.04900256482745
76.52300229836432
76.00250093483386
75.48718513278288
74.97666478067012
74.4704670830642
73.96803680808362
73.46875402179532
72.97198445520193
72.4771577105004
71.98380208092466
71.37308079463955
70.76353910915805
70.1550775899967
69.54758765625311
68.94096059399924
68.33511337502453
67.7300484129096
67.12597628669417
51.30879463485156
51.30879463485156
51.30879463485156
51.30879463485156
51.30879463485156
51.30879463485156
51.30879463485156
51.30879463485156
51.30879463485156
51.30879463485156
47.99780426577023
47.95979433913005
47.92284079645609
47.8870491929533
47.852505459664535
47.819275303654365
47.78740692421545
47.756933015626764
47.72787210503096
79.03548472533905
78.49300941038773
77.95840394245538
77.43172874646964
76.91308557294501
76.4026272187229
75.90057336354906
75.40723368269082
74.92303959406443
74.44858609474194
73.98468461132816
73.53242752120005
73.09327112619175
72.66916404556274
72.15514606682531
71.64506907797498
71.13946384401677
70.63889305532359
70.14395641426151
69.65529178845583
69.17356776482855
68.699459492115
51.30879463485156
51.30879463485156
51.30879463485156
51.30879463485156
51.30879463485156
51.30879463485156
51.30879463485156
51.30879463485156
51.30879463485156
51.30879463485156
48.75424245006405
48.69483392396592
48.639860436803914
48.589151167100454
48.54256628753932
48.49999481081308
48.46135204436234
48.42657768675778
48.39563451391299
79.3855040773721
78.84385617375645
78.31115120807189
77.78743290118693
77.27276874304333
76.76724861955958
76.27098180815358
75.78409135399566
75.30670434668846
74.83893596919192
74.38086446026406
73.9324930030229
73.49369119529993
73.06410046976052
72.53770735472783
72.01341941150451
71.49105880697618
70.97042513928989
70.4512892604727
69.93338762028912
69.41641830070142
68.90004089241836
51.30879463485156
51.30879463485156
51.30879463485156
51.30879463485156
51.30879463485156
51.30879463485156
51.30879463485156
51.30879463485156
51.30879463485156
51.30879463485156
48.95750825028864
48.911621569924414
48.86774625650881
48.825974985732444
48.78638146629087
48.74902253935433
48.71394004803577
48.68116223594353
48.6507047164616
79.66455575038111
79.1231351849626
78.59064059313108
78.06708046996326
77.5524630976927
77.04679519142209
76.55008019568955
76.0623164619534
75.58349574603925
75.11360280149789
74.65261734255705
74.2005204696018
73.7573094199219
73.32302826999627
72.79100499527142
72.26135423755576
71.73411964881853
71.20935394400487
70.68712207273282
70.1675045298213
69.65060055787032
69.13653072330197
51.30879463485156
51.30879463485156
51.30879463485156
51.30879463485156
51.30879463485156
51.30879463485156
51.30879463485156
51.30879463485156
51.30879463485156
51.30879463485156
49.03271466323433
48.98649018958281
48.94258189892772
48.900957990635675
48.861593537953055
48.824469306768144
48.789570782018785
48.756887445724644
48.726412279932646
79.86710676455657
79.3257382237661
78.79306424956926
78.26908911568664
77.7538152676444
77.24724348107745
76.74937311397235
76.26020246853123
75.77972923536167
75.30795089818415
74.84486480246593
74.39046725894194
73.94475032889171
73.50769340228825
72.9719631873319
72.4385024428577
71.90729743158786
71.37833118627141
70.85158224406584
70.32702323522895
69.80461936019351
69.28432686099217
51.30879463485156
51.30879463485156
51.30879463485156
51.30879463485156
51.30879463485156
51.30879463485156
51.30879463485156
51.30879463485156
51.30879463485156
51.30879463485156
49.05531833618719
49.01009264814161
48.96696089351427
48.92593214455335
48.8870127544246
48.85020687350879
48.81551685858834
48.782943572568236
48.75248658889785
80.00291994752044
79.46157718274945
78.92875672475176
78.40446312584072
77.8886992819674
77.38146640821172
76.88276398719908
76.39258967339485
75.91093914031272
75.43780587548163
74.97318097218484
74.51705306896544
74.06940883393219
73.63023494709952
73.09176491281102
72.555557429988
72.02161313842372
71.48993363832213
70.96052194039395
70.43338299331276
69.90852429238932
69.38595655554714
51.30879463485156
51.30879463485156
51.30879463485156
51.30879463485156
51.30879463485156
51.30879463485156
51.30879463485156
51.30879463485156
51.30879463485156
51.30879463485156
49.06304782281847
49.01788469513556
48.974834599648005
48.93389261614641
48.89505463503913
48.858317153822654
48.823677120287826
48.79113181924124
48.76067879611081
80.08087693313657
79.53954780880697
79.00663971399723
78.48215711360729
77.9661028222833
77.45847800280065
76.9592821699886
76.4685132070899
75.98616740308654
75.51223951860142
75.04672288009317
74.58960947546264
74.14088994656515
73.70055317804272
73.1605794807073
72.62285534297675
72.08737838801117
71.5541458729632
71.02315452956506
70.49440036838486
69.96787844013876
69.44358255147176
51.30879463485156
51.30879463485156
51.30879463485156
51.30879463485156
51.30879463485156
51.30879463485156
51.30879463485156
51.30879463485156
51.30879463485156
51.30879463485156
49.065405287603085
49.02032370289205
48.977335989311875
48.9364412881113
48.89763839843004
48.860925856914115
48.826301997450685
48.79376499361343
48.76331288691298
80.1062803717325
79.56495551646144
79.03201835964548
78.50747340981322
77.99132357978394
77.48357019293357
76.98421299034527
76.49325013549158
76.01067821132104
75.53649220331152
75.07068546346001
74.6132496609326
74.16417476420271
73.7234492090187
73.18297086220933
72.64473884511476
72.10875172616653
71.57500820144371
71.04350718621976
70.51424793076248
69.98723016622334
69.46245428502172
51.30879463485156
51.30879463485156
51.30879463485156
51.30879463485156
51.30879463485156
51.30879463485156
51.30879463485156
51.30879463485156
51.30879463485156
51.30879463485156
49.06595708062761
49.020879946637194
48.97789902373548
48.93701186697915
48.898216169012315
48.86150971120389
48.82689032760198
48.79435587963101
48.763904239430495
80.080876933137
79.53954780880744
79.00663971399767
78.48215711360771
77.96610282228366
77.45847800280096
76.95928216998892
76.46851320709024
75.98616740308691
75.51223951860182
75.04672288009357
74.58960947546308
74.14088994656561
73.70055317804318
73.16057948070775
72.62285534297719
72.08737838801162
71.55414587296362
71.02315452956549
70.49440036838529
69.96787844013919
69.44358255147222
51.30879463485156
51.30879463485156
51.30879463485156
51.30879463485156
51.30879463485156
51.30879463485156
51.30879463485156
51.30879463485156
51.30879463485156
51.30879463485156
49.06540528760353
49.020323702892505
48.97733598931234
48.93644128811176
48.897638398430516
48.86092585691462
48.826301997451196
48.79376499361395
48.76331288691349
80.00291994752114
79.46157718275015
78.92875672475246
78.4044631258414
77.8886992819681
77.38146640821239
76.88276398719974
76.39258967339549
75.91093914031335
75.43780587548224
74.97318097218545
74.51705306896606
74.06940883393283
73.63023494710018
73.0917649128117
72.55555742998865
72.02161313842436
71.48993363832275
70.96052194039459
70.43338299331342
69.90852429238997
69.38595655554775
51.30879463485156
51.30879463485156
51.30879463485156
51.30879463485156
51.30879463485156
51.30879463485156
51.30879463485156
51.30879463485156
51.30879463485156
51.30879463485156
49.06304782281952
49.01788469513664
48.974834599649114
48.93389261614755
48.895054635040275
48.85831715382378
48.823677120288956
48.791131819242366
48.76067879611196
79.86710676455706
79.32573822376656
78.79306424956971
78.26908911568705
77.75381526764478
77.2472434810778
76.74937311397268
76.26020246853155
75.77972923536198
75.30795089818447
74.84486480246632
74.39046725894234
73.94475032889214
73.50769340228868
72.97196318733235
72.43850244285817
71.9072974315883
71.37833118627184
70.85158224406618
70.3270232352292
69.80461936019374
69.28432686099238
51.30879463485156
51.30879463485156
51.30879463485156
51.30879463485156
51.30879463485156
51.30879463485156
51.30879463485156
51.30879463485156
51.30879463485156
51.30879463485156
49.05531833619009
49.01009264814458
48.96696089351728
48.92593214455637
48.88701275442762
48.85020687351176
48.81551685859124
48.78294357257106
48.75248658890065
79.66455575038144
79.12313518496296
78.59064059313148
78.06708046996371
77.55246309769315
77.04679519142253
76.55008019568997
76.06231646195386
75.58349574603973
75.11360280149836
74.6526173425575
74.20052046960221
73.75730941992228
73.32302826999664
72.79100499527179
72.26135423755608
71.73411964881886
71.20935394400523
70.68712207273326
70.1675045298218
69.65060055787083
69.13653072330247
51.30879463485156
51.30879463485156
51.30879463485156
51.30879463485156
51.30879463485156
51.30879463485156
51.30879463485156
51.30879463485156
51.30879463485156
51.30879463485156
49.03271466323663
48.986490189585155
48.942581898930115
48.90095799063813
48.861593537955564
48.82446930677069
48.789570782021364
48.756887445727266
48.72641227993528
79.38550407737189
78.84385617375622
78.31115120807164
77.78743290118663
77.27276874304303
76.76724861955933
76.27098180815332
75.7840913539954
75.3067043466882
74.83893596919172
74.38086446026394
73.93249300302283
73.49369119529986
73.06410046976045
72.53770735472776
72.01341941150447
71.49105880697614
70.97042513928987
70.45128926047265
69.93338762028904
69.4164183007013
68.90004089241819
51.30879463485156
51.30879463485156
51.30879463485156
51.30879463485156
51.30879463485156
51.30879463485156
51.30879463485156
51.30879463485156
51.30879463485156
51.30879463485156
48.95750825029035
48.911621569926155
48.86774625651056
48.825974985734184
48.78638146629262
48.749022539356076
48.71394004803748
48.68116223594521
48.65070471646328
79.03548472533842
78.49300941038713
77.95840394245478
77.43172874646905
76.91308557294441
76.40262721872233
75.90057336354856
75.40723368269032
74.92303959406398
74.44858609474153
73.98468461132782
73.53242752119976
73.09327112619147
72.6691640455625
72.15514606682511
71.64506907797478
71.13946384401659
70.6388930553234
70.14395641426131
69.6552917884556
69.17356776482832
68.69945949211477
51.30879463485156
51.30879463485156
51.30879463485156
51.30879463485156
51.30879463485156
51.30879463485156
51.30879463485156
51.30879463485156
51.30879463485156
51.30879463485156
48.75424245006525
48.694833923967145
48.63986043680518
48.58915116710174
48.5425662875406
48.49999481081437
48.46135204436366
48.426577686759124
48.395634513914324
78.66208142509377
78.1184021316634
77.58074429841157
77.04900256482684
76.52300229836386
76.0025009348335
75.48718513278254
74.97666478066982
74.47046708306391
73.96803680808335
73.46875402179496
72.97198445520154
72.47715771050008
71.98380208092439
71.37308079463938
70.763539109158
70.15507758999672
69.54758765625328
68.94096059399948
68.33511337502483
67.73004841290994
67.12597628669452
51.30879463485156
51.30879463485156
51.30879463485156
51.30879463485156
51.30879463485156
51.30879463485156
51.30879463485156
51.30879463485156
51.30879463485156
51.30879463485156
47.997804265771464
47.959794339131335
47.92284079645739
47.88704919295463
47.8525054596659
47.81927530365574
47.78740692421681
47.756933015628086
47.727872105032304
78.6434976203835
78.09978342427624
77.56204582180474
77.03016478839848
76.50394585504579
75.98312221257478
75.4673492733323
74.95619378186156
74.44912027510739
73.94547890160602
73.44450456830664
72.9453581568887
72.44725711249676
71.94962196784503
71.33289579411975
70.71719821763145
70.10238323027804
69.48824178628317
68.87447162049459
68.26062648877001
67.64598498763615
67.02942701761633
66.40349335435278
54.049720378260304
50.73698343986786
49.54558345277853
49.19328887200853
49.068610723307046
49.012287172305975
48.93120579446402
48.733933655132375
47.996394117507066
47.95807339301836
47.9209454885546
47.88470150397525
47.8495190087442
47.8154821277158
47.78265488273757
47.7510847558255
47.720804400743106
47.691832533000884
78.62506638673675
78.08132315963157
77.5435223833308
77.01152813615187
76.48512580763818
75.96402512381138
75.44785173171263
74.93613108022906
74.42826680285481
73.92351516024152
73.42096228903054
72.91954689111024
72.41824479827132
71.91638215191456
71.29375149100677
70.67203601557152
70.05106828700275
69.43056482027112
68.8100691907693
68.1888588097131
67.56575573851092
66.93832565401519
66.3029730290747
54.22109146575835
50.70546664883519
49.51811651151829
49.15060361173795
49.02501838004492
48.96656128898576
48.88568118570898
48.675819229596826
47.9572278424164
47.91976370007702
47.88317260398551
47.84752894107762
47.81287164463279
47.779276628623876
47.746803268937754
47.715497015479826
47.68538963010601
47.65649951857932
78.60679069105437
78.06302527320896
77.52518015326021
76.99310141581186
76.46655393819104
75.94522520503658
75.42871323840855
74.9165050338293
74.40794672673083
73.90220425388569
73.3982155112562
72.89467597471304
72.39026118347346
71.88420127627609
71.25575027451171
70.62816856531592
70.00131534837382
69.37488213597008
68.74833153947152
68.12082168024753
67.49105539629892
66.85719287742164
66.21697070024692
54.35901292909194
50.677052193747876
49.489407053131345
49.11001188025548
48.9832175298998
48.9231077146613
48.84214677900733
48.62190760950909
47.91933157871
47.882542342000654
47.846537716367635
47.81139754049447
47.777190081690826
47.74397558004533
47.7118088086056
47.68073276944488
47.650777993876304
47.62196233896952
78.58867164367909