# vtk DataFile Version 2.0
Niestacjonarne zagadnienie cieplne - ogrzewanie wody w garnku stalowym
ASCII
DATASET UNSTRUCTURED_GRID
POINTS 1353 float
0.0 0.0 0.0
0.0 0.0015384615384615385 0.0
0.0 0.003076923076923077 0.0
0.0 0.004615384615384615 0.0
0.0 0.006153846153846154 0.0
0.0 0.007692307692307693 0.0
0.0 0.00923076923076923 0.0
0.0 0.010769230769230769 0.0
0.0 0.012307692307692308 0.0
0.0 0.013846153846153847 0.0
0.0 0.015384615384615385 0.0
0.0 0.016923076923076923 0.0
0.0 0.01846153846153846 0.0
0.0 0.02 0.0
0.0 0.020555555555555556 0.0
0.0 0.021111111111111112 0.0
0.0 0.021666666666666667 0.0
0.0 0.022222222222222223 0.0
0.0 0.02277777777777778 0.0
0.0 0.023333333333333334 0.0
0.0 0.02388888888888889 0.0
0.0 0.024444444444444446 0.0
0.0 0.025 0.0
0.0 0.036111111111111115 0.0
0.0 0.04722222222222222 0.0
0.0 0.058333333333333334 0.0
0.0 0.06944444444444445 0.0
0.0 0.08055555555555556 0.0
0.0 0.09166666666666667 0.0
0.0 0.10277777777777777 0.0
0.0 0.1138888888888889 0.0
0.0 0.125 0.0
0.0 0.12555555555555556 0.0
0.0 0.12611111111111112 0.0
0.0 0.12666666666666668 0.0
0.0 0.1272222222222222 0.0
0.0 0.12777777777777777 0.0
0.0 0.12833333333333333 0.0
0.0 0.1288888888888889 0.0
0.0 0.12944444444444445 0.0
0.0 0.13 0.0
5.555555555555556E-4 0.0 0.0
5.555555555555556E-4 0.0015384615384615385 0.0
5.555555555555556E-4 0.003076923076923077 0.0
5.555555555555556E-4 0.004615384615384615 0.0
5.555555555555556E-4 0.006153846153846154 0.0
5.555555555555556E-4 0.007692307692307693 0.0
5.555555555555556E-4 0.00923076923076923 0.0
5.555555555555556E-4 0.010769230769230769 0.0
5.555555555555556E-4 0.012307692307692308 0.0
5.555555555555556E-4 0.013846153846153847 0.0
5.555555555555556E-4 0.015384615384615385 0.0
5.555555555555556E-4 0.016923076923076923 0.0
5.555555555555556E-4 0.01846153846153846 0.0
5.555555555555556E-4 0.02 0.0
5.555555555555556E-4 0.020555555555555556 0.0
5.555555555555556E-4 0.021111111111111112 0.0
5.555555555555556E-4 0.021666666666666667 0.0
5.555555555555556E-4 0.022222222222222223 0.0
5.555555555555556E-4 0.02277777777777778 0.0
5.555555555555556E-4 0.023333333333333334 0.0
5.555555555555556E-4 0.02388888888888889 0.0
5.555555555555556E-4 0.024444444444444446 0.0
5.555555555555556E-4 0.025 0.0
5.555555555555556E-4 0.036111111111111115 0.0
5.555555555555556E-4 0.04722222222222222 0.0
5.555555555555556E-4 0.058333333333333334 0.0
5.555555555555556E-4 0.06944444444444445 0.0
5.555555555555556E-4 0.08055555555555556 0.0
5.555555555555556E-4 0.09166666666666667 0.0
5.555555555555556E-4 0.10277777777777777 0.0
5.555555555555556E-4 0.1138888888888889 0.0
5.555555555555556E-4 0.125 0.0
5.555555555555556E-4 0.12555555555555556 0.0
5.555555555555556E-4 0.12611111111111112 0.0
5.555555555555556E-4 0.12666666666666668 0.0
5.555555555555556E-4 0.1272222222222222 0.0
5.555555555555556E-4 0.12777777777777777 0.0
5.555555555555556E-4 0.12833333333333333 0.0
5.555555555555556E-4 0.1288888888888889 0.0
5.555555555555556E-4 0.12944444444444445 0.0
5.555555555555556E-4 0.13 0.0
0.0011111111111111111 0.0 0.0
0.0011111111111111111 0.0015384615384615385 0.0
0.0011111111111111111 0.003076923076923077 0.0
0.0011111111111111111 0.004615384615384615 0.0
0.0011111111111111111 0.006153846153846154 0.0
0.0011111111111111111 0.007692307692307693 0.0
0.0011111111111111111 0.00923076923076923 0.0
0.0011111111111111111 0.010769230769230769 0.0
0.0011111111111111111 0.012307692307692308 0.0
0.0011111111111111111 0.013846153846153847 0.0
0.0011111111111111111 0.015384615384615385 0.0
0.0011111111111111111 0.016923076923076923 0.0
0.0011111111111111111 0.01846153846153846 0.0
0.0011111111111111111 0.02 0.0
0.0011111111111111111 0.020555555555555556 0.0
0.0011111111111111111 0.021111111111111112 0.0
0.0011111111111111111 0.021666666666666667 0.0
0.0011111111111111111 0.022222222222222223 0.0
0.0011111111111111111 0.02277777777777778 0.0
0.0011111111111111111 0.023333333333333334 0.0
0.0011111111111111111 0.02388888888888889 0.0
0.0011111111111111111 0.024444444444444446 0.0
0.0011111111111111111 0.025 0.0
0.0011111111111111111 0.036111111111111115 0.0
0.0011111111111111111 0.04722222222222222 0.0
0.0011111111111111111 0.058333333333333334 0.0
0.0011111111111111111 0.06944444444444445 0.0
0.0011111111111111111 0.08055555555555556 0.0
0.0011111111111111111 0.09166666666666667 0.0
0.0011111111111111111 0.10277777777777777 0.0
0.0011111111111111111 0.1138888888888889 0.0
0.0011111111111111111 0.125 0.0
0.0011111111111111111 0.12555555555555556 0.0
0.0011111111111111111 0.12611111111111112 0.0
0.0011111111111111111 0.12666666666666668 0.0
0.0011111111111111111 0.1272222222222222 0.0
0.0011111111111111111 0.12777777777777777 0.0
0.0011111111111111111 0.12833333333333333 0.0
0.0011111111111111111 0.1288888888888889 0.0
0.0011111111111111111 0.12944444444444445 0.0
0.0011111111111111111 0.13 0.0
0.0016666666666666666 0.0 0.0
0.0016666666666666666 0.0015384615384615385 0.0
0.0016666666666666666 0.003076923076923077 0.0
0.0016666666666666666 0.004615384615384615 0.0
0.0016666666666666666 0.006153846153846154 0.0
0.0016666666666666666 0.007692307692307693 0.0
0.0016666666666666666 0.00923076923076923 0.0
0.0016666666666666666 0.010769230769230769 0.0
0.0016666666666666666 0.012307692307692308 0.0
0.0016666666666666666 0.013846153846153847 0.0
0.0016666666666666666 0.015384615384615385 0.0
0.0016666666666666666 0.016923076923076923 0.0
0.0016666666666666666 0.01846153846153846 0.0
0.0016666666666666666 0.02 0.0
0.0016666666666666666 0.020555555555555556 0.0
0.0016666666666666666 0.021111111111111112 0.0
0.0016666666666666666 0.021666666666666667 0.0
0.0016666666666666666 0.022222222222222223 0.0
0.0016666666666666666 0.02277777777777778 0.0
0.0016666666666666666 0.023333333333333334 0.0
0.0016666666666666666 0.02388888888888889 0.0
0.0016666666666666666 0.024444444444444446 0.0
0.0016666666666666666 0.025 0.0
0.0016666666666666666 0.036111111111111115 0.0
0.0016666666666666666 0.04722222222222222 0.0
0.0016666666666666666 0.058333333333333334 0.0
0.0016666666666666666 0.06944444444444445 0.0
0.0016666666666666666 0.08055555555555556 0.0
0.0016666666666666666 0.09166666666666667 0.0
0.0016666666666666666 0.10277777777777777 0.0
0.0016666666666666666 0.1138888888888889 0.0
0.0016666666666666666 0.125 0.0
0.0016666666666666666 0.12555555555555556 0.0
0.0016666666666666666 0.12611111111111112 0.0
0.0016666666666666666 0.12666666666666668 0.0
0.0016666666666666666 0.1272222222222222 0.0
0.0016666666666666666 0.12777777777777777 0.0
0.0016666666666666666 0.12833333333333333 0.0
0.0016666666666666666 0.1288888888888889 0.0
0.0016666666666666666 0.12944444444444445 0.0
0.0016666666666666666 0.13 0.0
0.0022222222222222222 0.0 0.0
0.0022222222222222222 0.0015384615384615385 0.0
0.0022222222222222222 0.003076923076923077 0.0
0.0022222222222222222 0.004615384615384615 0.0
0.0022222222222222222 0.006153846153846154 0.0
0.0022222222222222222 0.007692307692307693 0.0
0.0022222222222222222 0.00923076923076923 0.0
0.0022222222222222222 0.010769230769230769 0.0
0.0022222222222222222 0.012307692307692308 0.0
0.0022222222222222222 0.013846153846153847 0.0
0.0022222222222222222 0.015384615384615385 0.0
0.0022222222222222222 0.016923076923076923 0.0
0.0022222222222222222 0.01846153846153846 0.0
0.0022222222222222222 0.02 0.0
0.0022222222222222222 0.020555555555555556 0.0
0.0022222222222222222 0.021111111111111112 0.0
0.0022222222222222222 0.021666666666666667 0.0
0.0022222222222222222 0.022222222222222223 0.0
0.0022222222222222222 0.02277777777777778 0.0
0.0022222222222222222 0.023333333333333334 0.0
0.0022222222222222222 0.02388888888888889 0.0
0.0022222222222222222 0.024444444444444446 0.0
0.0022222222222222222 0.025 0.0
0.0022222222222222222 0.036111111111111115 0.0
0.0022222222222222222 0.04722222222222222 0.0
0.0022222222222222222 0.058333333333333334 0.0
0.0022222222222222222 0.06944444444444445 0.0
0.0022222222222222222 0.08055555555555556 0.0
0.0022222222222222222 0.09166666666666667 0.0
0.0022222222222222222 0.10277777777777777 0.0
0.0022222222222222222 0.1138888888888889 0.0
0.0022222222222222222 0.125 0.0
0.0022222222222222222 0.12555555555555556 0.0
0.0022222222222222222 0.12611111111111112 0.0
0.0022222222222222222 0.12666666666666668 0.0
0.0022222222222222222 0.1272222222222222 0.0
0.0022222222222222222 0.12777777777777777 0.0
0.0022222222222222222 0.12833333333333333 0.0
0.0022222222222222222 0.1288888888888889 0.0
0.0022222222222222222 0.12944444444444445 0.0
0.0022222222222222222 0.13 0.0
0.002777777777777778 0.0 0.0
0.002777777777777778 0.0015384615384615385 0.0
0.002777777777777778 0.003076923076923077 0.0
0.002777777777777778 0.004615384615384615 0.0
0.002777777777777778 0.006153846153846154 0.0
0.002777777777777778 0.007692307692307693 0.0
0.002777777777777778 0.00923076923076923 0.0
0.002777777777777778 0.010769230769230769 0.0
0.002777777777777778 0.012307692307692308 0.0
0.002777777777777778 0.013846153846153847 0.0
0.002777777777777778 0.015384615384615385 0.0
0.002777777777777778 0.016923076923076923 0.0
0.002777777777777778 0.01846153846153846 0.0
0.002777777777777778 0.02 0.0
0.002777777777777778 0.020555555555555556 0.0
0.002777777777777778 0.021111111111111112 0.0
0.002777777777777778 0.021666666666666667 0.0
0.002777777777777778 0.022222222222222223 0.0
0.002777777777777778 0.02277777777777778 0.0
0.002777777777777778 0.023333333333333334 0.0
0.002777777777777778 0.02388888888888889 0.0
0.002777777777777778 0.024444444444444446 0.0
0.002777777777777778 0.025 0.0
0.002777777777777778 0.036111111111111115 0.0
0.002777777777777778 0.04722222222222222 0.0
0.002777777777777778 0.058333333333333334 0.0
0.002777777777777778 0.06944444444444445 0.0
0.002777777777777778 0.08055555555555556 0.0
0.002777777777777778 0.09166666666666667 0.0
0.002777777777777778 0.10277777777777777 0.0
0.002777777777777778 0.1138888888888889 0.0
0.002777777777777778 0.125 0.0
0.002777777777777778 0.12555555555555556 0.0
0.002777777777777778 0.12611111111111112 0.0
[...]
POINT_DATA 1353
SCALARS Temperatura float 1
LOOKUP_TABLE default
70.90226867871
70.35261132401911
69.80936720080523
69.27218027849128
68.74074054696423
68.21467857229204
67.69353067741372
67.17669779304106
66.66339263503144
66.15254567815339
65.64270107803152
65.13152230107107
64.6161461675644
64.08286465605157
63.40153249906449
62.74445190762716
62.09493868922081
61.449902577762856
60.80734525595325
60.16592243904626
59.524644067354025
58.88280533404391
58.239986611965115
46.96981434697784
42.875662150768065
41.67251253723513
41.26691111905442
41.13660552849271
41.07723145597389
41.00812943129929
40.8062425878535
40.269063195035734
40.24139551864886
40.214333298746496
40.18796336208362
40.16236292069575
40.13759847371461
40.11372499834346
40.09078540913138
40.06881023143897
40.047817426261055
70.91745137075125
70.36767729047186
69.82428897018879
69.28696265546212
68.75538862729488
68.2292001828494
67.70793577126153
67.191000047782
66.67760858992553
66.16670993593104
65.65681990383078
65.14584624980108
64.63001986177422
64.10194856468031
63.44120261685767
62.78573223523026
62.137022882299476
61.492212862320514
60.84964246447651
60.208050639492264
59.566470854848525
58.92419188300522
58.28077490563702
46.985324090467145
42.89825187032662
41.69480044953386
41.289485607975905
41.15923167016692
41.0998867527827
41.03077016997537
40.82927013860804
40.290592733074575
40.26284792456338
40.23571334932463
40.209276616038665
40.18361556935448
40.15879717531145
40.134876726453406
40.11189733245557
40.08988962776583
40.06887162422024
70.9327325773178
70.38289965752686
69.83940660894788
69.30198045123822
68.77031983815063
68.2440647153056
67.72276081419827
67.20582248076818
66.69248150332079
66.18170828648223
65.67207900573598
65.16156979425122
64.64673843674026
64.12395324310123
63.472353617468606
62.82331913570661
62.1775682009765
61.53458672497977
60.89322360180063
60.25242177665737
59.6112598075326
58.96899527834108
58.325122010369576
46.97652341494652
42.9193241393136
41.717321843562964
41.313727676721086
41.18388520389273
41.1247531774114
41.055728147510955
40.855814395338754
40.31372902664066
40.2858085252825
40.25851145479723
40.23192764628276
40.206136698352154
40.18120682120045
40.15719410397419
40.13414211673679
40.112081730040956
40.091031053888614
70.94814189337679
70.39827970091062
69.85471962076947
69.31723220910595
68.7855318791028
68.25926902206484
67.73800126835785
67.22115929818531
66.70799991329032
66.1975341488103
65.68841956494991
65.17875472878914
64.6657907411362
64.14753948717143
63.50255685375828
62.85911607458455
62.21753746901554
61.57755312818039
60.938466569174146
60.29938685602733
59.65940473445541
59.017687076678754
58.37358108442752
46.94290095050742
42.93913447574908
41.7400082005721
41.33966385491118
41.210561580770246
41.15183837414142
41.08299236796639
40.88590238398616
40.33846352601077
40.31026614932453
40.282714160934994
40.255901235423536
40.22990987530726
40.20481022580454
40.180659524043946
40.15750194745625
40.13536864184959
40.11427780976761
70.96369492904014
70.4138214331989
69.8702268139592
69.33271541863782
68.80102090184263
68.27480777385337
67.75364981169368
67.23699995350196
66.72414863088204
66.21416280932179
65.70579671155024
65.19734768146817
64.68669188319829
64.17252091164417
63.5332019988188
62.89499349756095
62.25793927867259
61.62176371175682
60.9858782839115
60.34945635434799
59.711520891815354
59.07104647032734
58.427102576587785
46.883602896891205
42.95812010182309
41.76274034317067
41.36733915364357
41.23925106452291
41.18115401578683
41.11254246713482
40.91957719683832
40.364780826045596
40.33620072395569
40.30829743211086
40.28117045315244
40.25490632310787
40.22957755552887
40.2052426177827
40.181946228285426
40.159719703977
40.13858124277237
70.97940030881577
70.4295280643287
69.88592658506208
69.34842642749366
68.81678153139835
68.29067357656096
67.76969628422988
67.25333006053616
66.74090675436273
66.23156045551679
65.7241589848918
65.21723095202171
64.70912838594603
64.1988276298008
63.56483404046789
62.93177427400694
62.29953368133022
61.66778710787542
61.03595807438362
60.40319772036989
59.76838046420957
59.13014986042854
58.48708722788676
46.79740406584531
42.976916027957635
41.78534093906477
41.396820072339516
41.269937521008764
41.21271648091115
41.14434802380887
40.956898628753734
40.3926586496944
40.363582428184685
40.335225395746875
40.307695552260256
40.281084136266706
40.255465847336374
40.23089995834607
40.20743143768354
40.185091442728016
40.163897938804254
70.99526246968902
70.4454011265813
69.90181659892917
69.3643604610855
68.83280689497718
68.30685706111038
67.78612787840262
67.27013168417861
66.75824810091386
66.24968688230487
65.74344222626202
65.23827363541864
64.73288483113562
64.22639364616818
63.597667485429376
62.969843168406044
62.34273074318925
61.715986833247
61.089054969580346
60.46108797922389
59.8307928657821
59.19633953906489
58.55547673967107
46.68266218532807
42.996379362595675
41.80756330889698
41.4281990869307
41.30259660934674
41.24654785084193
41.17836758207482
40.99794402283411
40.42206804120631
40.39236952551798
40.36344783257885
40.335422113175404
40.30838749905457
40.282418347705104
40.25757472693042
40.23390102075488
40.211427588213
40.1901717768158
71.0112829422581
70.4614403687204
69.91789352389118
69.38051161581942
68.84908867267445
68.32334699764614
67.80292936228842
67.2873836561828
66.77614209737854
66.26849622489858
65.76357313484539
65.26034873961913
64.75779596535865
64.25513622878925
63.63175227790706
63.00933232691047
62.387674080551925
61.76646789789124
61.14524143644812
60.52326598762016
59.89936560984384
59.27110912880728
58.63490789411572
46.53724756400968
43.01762446162148
41.82907560191191
41.461600970758774
41.337193239535196
41.28267727735817
41.21454738859369
41.042809201947044
40.45297429487681
40.422502325305494
40.39289238490561
40.364282027667386
40.33674508665972
40.31036375970262
40.28519645366568
40.261285419416126
40.238659244775235
40.21733414086712
71.02746103258985
70.47764386236312
69.9341528966089
69.39687284752625
68.86561716284369
68.34013043211151
67.82008331779396
67.30506198867506
66.79455457380521
66.28793799292696
65.78447345594758
65.28333646400316
64.78372097698134
64.28495410742732
63.667038140507806
63.05021018561697
62.434299849479096
61.81907918776175
61.20423386805563
60.58931280881519
59.97359668261238
59.355978506636156
58.72897412966761
46.358434752420635
43.04207323271921
41.849438847472214
41.49719148441029
41.37367811564677
41.32114271464597
41.25282014923085
41.09160820726856
40.48534344429938
40.45382819041969
40.4234960991767
40.394186207020496
40.36606822535051
40.339215653030635
40.313681059228756
40.289502373689
40.26670530161193
40.24530436077902
71.04379424398698
70.49400815833219
69.9505890829604
69.41343597590664
68.88238135916193
68.35719283817461
67.83757039901985
67.32314032418344
66.81344851536723
66.3079583797246
65.80606281559211
65.30712304674962
64.81053025216889
64.31573051547913
63.70341139717695
63.09233845883237
62.48239594311811
61.873462284661144
61.265420272022766
60.65818375093026
60.05175809126961
59.44636334454811
43.38159366868128
43.38159366868128
43.38159366868128
43.38159366868128
43.38159366868128
43.38159366868128
43.38159366868128
43.38159366868128
43.38159366868128
43.38159366868128
40.48652742703105
40.4551315707383
40.42502003182234
40.39624967142753
40.368872767013514
40.34293146197803
40.31845761436504
40.29547314890943
40.27399043303155
71.37524694941825
70.82657793083555
70.28601708422505
69.75362142591892
69.22948651627821
68.71375558725245
68.20663449919853
67.70841365836729
67.21949826666983
66.74044849453574
66.27203090250357
65.81528245338936
65.37159396082036
64.94283717017925
64.4229531503932
63.90702257510705
63.39555683780097
62.889097502363576
62.38822087019608
61.89353863284033
61.4056899083906
60.92531656603362
43.38159366868128
43.38159366868128
43.38159366868128
43.38159366868128
43.38159366868128
43.38159366868128
43.38159366868128
43.38159366868128
43.38159366868128
43.38159366868128
41.10890151293539
41.05901446832376
41.013256127436634
40.9714889189289
40.9335982402624
40.89949212844914
40.869099850394996
40.84237070634989
40.819273153530204
71.68910316139758
71.14121007669806
70.60245538015162
70.07288096157173
69.55255122161566
69.0415518288971
68.53998694777341
68.04797399990908
67.56563454105333
67.09307918050997
66.63038369607742
66.17755230856645
65.734460889423
65.30076538138898
64.76944801947946
64.240327691067
63.71323352762542
63.187973108977886
62.66432660974378
62.142041489021196
61.62082890915771
61.10036403811244
43.38159366868128
43.38159366868128
43.38159366868128
43.38159366868128
43.38159366868128
43.38159366868128
43.38159366868128
43.38159366868128
43.38159366868128
43.38159366868128
41.27455401230524
41.235955435590405
41.19947162963113
41.16517832143005
41.133136159345234
41.10339205534656
41.07598054822569
41.050924865102274
41.02823767258849
71.93998212301231
71.39230146648997
70.85375952822112
70.32436498188761
69.80412633657699
69.29305064628146
68.79114188378297
68.29839919356571
67.81481543927356
67.34037679067922
66.87506459142239
66.41886156764514
65.97176614261201
65.53382213312644
64.99743429779825
64.46350473966541
63.93207569763783
63.40319808983458
62.87693454063147
62.35336252822564
61.83257739790868
61.314694717524254
43.38159366868128
43.38159366868128
43.38159366868128
43.38159366868128
43.38159366868128
43.38159366868128
43.38159366868128
43.38159366868128
43.38159366868128
43.38159366868128
41.33598460888088
41.297051110914516
41.26049278211528
41.226282793207275
41.19439987469716
41.1648274428406
41.137552839389876
41.112566756023426
41.089862833613395
72.12204583499549
71.57441265015356
71.03571151917893
70.50594709332286
69.98512231257374
69.47323855668226
68.97029588656966
68.47629339250712
67.99122962448303
67.51510298847744
67.04791182022123
66.58965351970461
66.14032142986585
65.69989669034584
65.16018838058243
64.62284125989748
64.08784223207343
63.55517509898828
63.02481934928163
62.49674881080311
61.97093020458874
61.44732170945915
43.38159366868128
43.38159366868128
43.38159366868128
43.38159366868128
43.38159366868128
43.38159366868128
43.38159366868128
43.38159366868128
43.38159366868128
43.38159366868128
41.354334107626286
41.316227330049145
41.28031115413774
41.24659268844393
41.21507681364092
41.185766583656076
41.158663553865715
41.133768024795856
41.11107920960952
72.24403912439296
71.69642917022041
71.15759669837759
70.62754662237687
70.10628230079358
69.59380551408844
69.09011641549226
68.5952134392823
68.1090931535508
67.63175006176078
67.16317640077409
66.70336208344779
66.25229517209175
65.80996379873585
65.26778832627433
64.72796897189258
64.19050647831327
63.655402507818806
63.122660073837274
62.592284045793285
62.064281729516566
61.53866350773891
43.38159366868128
43.38159366868128
43.38159366868128
43.38159366868128
43.38159366868128
43.38159366868128
43.38159366868128
43.38159366868128
43.38159366868128
43.38159366868128
41.360605884264345
41.322545979577725
41.286693389066386
41.25304358075308
41.22159268523672
41.19233733371772
41.165274530486606
41.14040155988019
41.117715923174664
72.31402595682563
71.76642824676975
71.22751708915767
70.69729730862224
70.17577217367375
69.66294339498398
69.15881112890874
68.66337399292756
68.17662910130662
67.69857212841741
67.22919739934306
66.76849798115957
66.31646567299684
65.87309060548495
65.32956571029331
64.78838525994107
64.24954706120865
63.713048565590775
63.17888671628904
62.647057760603914
62.117557021793296
61.5903786285515
43.38159366868128
43.38159366868128
43.38159366868128
43.38159366868128
43.38159366868128
43.38159366868128
43.38159366868128
43.38159366868128
43.38159366868128
43.38159366868128
41.362510427081396
41.324517405221165
41.28871583402236
41.255104574407845
41.22368220001698
41.194447061500945
41.1673973355429
41.142531059964526
41.119846157201806
72.33682565315983
71.78923176513898
71.25029449595898
70.72001870986277
70.19840776469484
69.68546351781808
69.18118633283962
68.68557508390131
68.19862715255682
67.72033841097854
67.2507031866782
66.78971421459605
66.3373626203987
65.89363808378098
65.34965952514997
64.80802259288559
64.26872600299487
63.73176859108085
63.197149400345246
62.664867792745405
62.13492358869712
61.6073172392212
43.38159366868128
43.38159366868128
43.38159366868128
43.38159366868128
43.38159366868128
43.38159366868128
43.38159366868128
43.38159366868128
43.38159366868128
43.38159366868128
41.36295603424587
41.324966298972136
41.28917003754649
41.25556478613754
41.224148190258596
41.19491796504127
41.167871865540164
41.14300766574898
41.12032314472887
72.31402595682601
71.76642824677013
71.22751708915803
70.69729730862258
70.17577217367406
69.66294339498425
69.158811128909
68.66337399292784
68.17662910130693
67.69857212841774
67.22919739934338
66.7684979811599
66.31646567299717
65.87309060548527
65.32956571029368
64.78838525994144
64.24954706120901
63.713048565591116
63.17888671628938
62.64705776060425
62.11755702179363
61.59037862855186
43.38159366868128
43.38159366868128
43.38159366868128
43.38159366868128
43.38159366868128
43.38159366868128
43.38159366868128
43.38159366868128
43.38159366868128
43.38159366868128
41.36251042708177
41.32451740522156
41.28871583402276
41.25510457440825
41.22368220001739
41.19444706150138
41.16739733554334
41.14253105996496
41.11984615720223
72.2440391243936
71.69642917022107
71.15759669837824
70.6275466223775
70.10628230079418
69.59380551408903
69.09011641549283
68.59521343928284
68.10909315355131
67.63175006176127
67.1631764007746
66.70336208344831
66.25229517209229
65.80996379873642
65.26778832627485
64.7279689718931
64.1905064783138
63.65540250781932
63.12266007383779
62.5922840457938
62.064281729517084
61.538663507739386
43.38159366868128
43.38159366868128
43.38159366868128
43.38159366868128
43.38159366868128
43.38159366868128
43.38159366868128
43.38159366868128
43.38159366868128
43.38159366868128
41.36060588426528
41.32254597957867
41.28669338906736
41.25304358075408
41.22159268523773
41.19233733371871
41.1652745304876
41.1404015598812
41.11771592317567
72.12204583499593
71.57441265015397
71.03571151917932
70.50594709332323
69.98512231257408
69.4732385566826
68.97029588656999
68.47629339250742
67.9912296244833
67.51510298847774
67.04791182022157
66.58965351970497
66.14032142986623
65.69989669034621
65.16018838058285
64.6228412598979
64.08784223207381
63.55517509898864
63.024819349281906
62.49674881080334
61.970930204588925
61.44732170945933
43.38159366868128
43.38159366868128
43.38159366868128
43.38159366868128
43.38159366868128
43.38159366868128
43.38159366868128
43.38159366868128
43.38159366868128
43.38159366868128
41.354334107628695
41.316227330051625
41.28031115414025
41.24659268844645
41.215076813643414
41.18576658365854
41.158663553868124
41.133768024798194
41.11107920961184
71.93998212301263
71.3923014664903
70.85375952822149
70.324364981888
69.80412633657738
69.29305064628186
68.79114188378337
68.29839919356613
67.81481543927399
67.34037679067964
66.87506459142278
66.41886156764552
65.97176614261237
65.53382213312678
64.99743429779858
64.46350473966568
63.9320756976381
63.40319808983488
62.87693454063183
62.353362528226036
61.832577397909105
61.31469471752467
43.38159366868128
43.38159366868128
43.38159366868128
43.38159366868128
43.38159366868128
43.38159366868128
43.38159366868128
43.38159366868128
43.38159366868128
43.38159366868128
41.33598460888279
41.297051110916456
41.26049278211727
41.226282793209315
41.19439987469924
41.1648274428427
41.137552839392
41.112566756025586
41.08986283361557
71.6891031613974
71.14121007669786
70.60245538015141
70.07288096157147
69.5525512216154
69.04155182889687
68.5399869477732
68.04797399990888
67.56563454105311
67.09307918050979
66.6303836960773
66.17755230856638
65.73446088942293
65.30076538138894
64.76944801947941
64.24032769106698
63.71323352762542
63.187973108977914
62.66432660974378
62.14204148902116
61.620828909157645
61.10036403811234
43.38159366868128
43.38159366868128
43.38159366868128
43.38159366868128
43.38159366868128
43.38159366868128
43.38159366868128
43.38159366868128
43.38159366868128
43.38159366868128
41.27455401230667
41.23595543559187
41.19947162963259
41.165178321431505
41.1331361593467
41.10339205534804
41.07598054822714
41.05092486510371
41.028237672589924
71.3752469494177
70.82657793083504
70.28601708422454
69.75362142591842
69.22948651627772
68.71375558725198
68.20663449919809
67.70841365836685
67.21949826666943
66.74044849453539
66.27203090250327
65.81528245338912
65.37159396082014
64.94283717017905
64.42295315039304
63.907022575106886
63.39555683780082
62.88909750236342
62.38822087019593
61.893538632840176
61.40568990839042
60.92531656603343
43.38159366868128
43.38159366868128
43.38159366868128
43.38159366868128
43.38159366868128
43.38159366868128
43.38159366868128
43.38159366868128
43.38159366868128
43.38159366868128
41.10890151293637
41.05901446832476
41.01325612743767
40.971488918929964
40.93359824026348
40.89949212845022
40.8690998503961
40.84237070635102
40.819273153531334
71.0437942439863
70.49400815833151
69.9505890829598
69.41343597590611
68.88238135916153
68.35719283817426
67.83757039901955
67.32314032418319
66.813448515367
66.30795837972435
65.80606281559183
65.30712304674933
64.81053025216863
64.31573051547893
63.70341139717681
63.09233845883235
62.482395943118185
61.87346228466133
61.26542027202299
60.658183750930526
60.05175809126994
59.44636334454845
43.38159366868128
43.38159366868128
43.38159366868128
43.38159366868128
43.38159366868128
43.38159366868128
43.38159366868128
43.38159366868128
43.38159366868128
43.38159366868128
40.486527427032144
40.455131570739425
40.425020031823465
40.39624967142867
40.36887276701469
40.34293146197923
40.31845761436621
40.29547314891056
40.27399043303269
71.02746103258917
70.47764386236238
69.93415289660828
69.39687284752574
68.86561716284336
68.34013043211121
67.82008331779365
67.30506198867486
66.79455457380494
66.28793799292671
65.78447345594728
65.28333646400283
64.78372097698103
64.28495410742715
63.667038140507685
63.050210185616976
62.43429984947918
61.819079187761886
61.20423386805586
60.5893128088155
59.97359668261271
59.35597850663651
58.728974129667996
46.35843475242181
43.04207323271915
41.84943884747214
41.49719148441107
41.37367811564706
41.32114271464633
41.252820149231304
41.09160820726804
40.48534344430044
40.45382819042077
40.423496099177825
40.39418620702162
40.36606822535165
40.339215653031744
40.31368105922987
40.28950237369014
40.26670530161304
40.24530436078012
71.01128294225737
70.46144036871968
69.91789352389056
69.38051161581897
68.84908867267416
68.32334699764581
67.80292936228815
67.28738365618254
66.77614209737831
66.26849622489837
65.76357313484505
65.2603487396188
64.75779596535834
64.25513622878908
63.631752277906976
63.009332326910446
62.387674080551996
61.76646789789139
61.14524143644834
60.52326598762047
59.89936560984416
59.271109128807666
58.63490789411614
46.537247564010876
43.0176244616215
41.82907560191188
41.46160097075959
41.33719323953547
41.28267727735855
41.21454738859417
41.04280920194651
40.45297429487788
40.42250232530655
40.39289238490671
40.36428202766847
40.33674508666082
40.310363759703705
40.28519645366678
40.26128541941718
40.23865924477635
40.217334140868175
70.99526246968826
70.44540112658056
69.9018165989286
69.36436046108501
68.83280689497688
68.30685706111005
67.78612787840237
67.27013168417837
66.75824810091363
66.2496868823046
65.74344222626168
65.23827363541838
64.73288483113528
64.22639364616799
63.59766748542929
62.969843168406044
62.34273074318933
61.71598683324718
61.0890549695806
60.46108797922421
59.83079286578247
59.19633953906532
58.55547673967152
46.68266218532925
42.99637936259578
41.80756330889702
41.42819908693154
41.302596609347056
41.24654785084232
41.17836758207535
40.9979440228336
40.42206804120736
40.39236952551904
40.36344783257992
40.3354221131765
40.308387499055684
40.28241834770618
40.25757472693148