# vtk DataFile Version 2.0
Niestacjonarne zagadnienie cieplne - ogrzewanie wody w garnku stalowym
ASCII
DATASET UNSTRUCTURED_GRID
POINTS 1353 float
0.0 0.0 0.0
0.0 0.0015384615384615385 0.0
0.0 0.003076923076923077 0.0
0.0 0.004615384615384615 0.0
0.0 0.006153846153846154 0.0
0.0 0.007692307692307693 0.0
0.0 0.00923076923076923 0.0
0.0 0.010769230769230769 0.0
0.0 0.012307692307692308 0.0
0.0 0.013846153846153847 0.0
0.0 0.015384615384615385 0.0
0.0 0.016923076923076923 0.0
0.0 0.01846153846153846 0.0
0.0 0.02 0.0
0.0 0.020555555555555556 0.0
0.0 0.021111111111111112 0.0
0.0 0.021666666666666667 0.0
0.0 0.022222222222222223 0.0
0.0 0.02277777777777778 0.0
0.0 0.023333333333333334 0.0
0.0 0.02388888888888889 0.0
0.0 0.024444444444444446 0.0
0.0 0.025 0.0
0.0 0.036111111111111115 0.0
0.0 0.04722222222222222 0.0
0.0 0.058333333333333334 0.0
0.0 0.06944444444444445 0.0
0.0 0.08055555555555556 0.0
0.0 0.09166666666666667 0.0
0.0 0.10277777777777777 0.0
0.0 0.1138888888888889 0.0
0.0 0.125 0.0
0.0 0.12555555555555556 0.0
0.0 0.12611111111111112 0.0
0.0 0.12666666666666668 0.0
0.0 0.1272222222222222 0.0
0.0 0.12777777777777777 0.0
0.0 0.12833333333333333 0.0
0.0 0.1288888888888889 0.0
0.0 0.12944444444444445 0.0
0.0 0.13 0.0
5.555555555555556E-4 0.0 0.0
5.555555555555556E-4 0.0015384615384615385 0.0
5.555555555555556E-4 0.003076923076923077 0.0
5.555555555555556E-4 0.004615384615384615 0.0
5.555555555555556E-4 0.006153846153846154 0.0
5.555555555555556E-4 0.007692307692307693 0.0
5.555555555555556E-4 0.00923076923076923 0.0
5.555555555555556E-4 0.010769230769230769 0.0
5.555555555555556E-4 0.012307692307692308 0.0
5.555555555555556E-4 0.013846153846153847 0.0
5.555555555555556E-4 0.015384615384615385 0.0
5.555555555555556E-4 0.016923076923076923 0.0
5.555555555555556E-4 0.01846153846153846 0.0
5.555555555555556E-4 0.02 0.0
5.555555555555556E-4 0.020555555555555556 0.0
5.555555555555556E-4 0.021111111111111112 0.0
5.555555555555556E-4 0.021666666666666667 0.0
5.555555555555556E-4 0.022222222222222223 0.0
5.555555555555556E-4 0.02277777777777778 0.0
5.555555555555556E-4 0.023333333333333334 0.0
5.555555555555556E-4 0.02388888888888889 0.0
5.555555555555556E-4 0.024444444444444446 0.0
5.555555555555556E-4 0.025 0.0
5.555555555555556E-4 0.036111111111111115 0.0
5.555555555555556E-4 0.04722222222222222 0.0
5.555555555555556E-4 0.058333333333333334 0.0
5.555555555555556E-4 0.06944444444444445 0.0
5.555555555555556E-4 0.08055555555555556 0.0
5.555555555555556E-4 0.09166666666666667 0.0
5.555555555555556E-4 0.10277777777777777 0.0
5.555555555555556E-4 0.1138888888888889 0.0
5.555555555555556E-4 0.125 0.0
5.555555555555556E-4 0.12555555555555556 0.0
5.555555555555556E-4 0.12611111111111112 0.0
5.555555555555556E-4 0.12666666666666668 0.0
5.555555555555556E-4 0.1272222222222222 0.0
5.555555555555556E-4 0.12777777777777777 0.0
5.555555555555556E-4 0.12833333333333333 0.0
5.555555555555556E-4 0.1288888888888889 0.0
5.555555555555556E-4 0.12944444444444445 0.0
5.555555555555556E-4 0.13 0.0
0.0011111111111111111 0.0 0.0
0.0011111111111111111 0.0015384615384615385 0.0
0.0011111111111111111 0.003076923076923077 0.0
0.0011111111111111111 0.004615384615384615 0.0
0.0011111111111111111 0.006153846153846154 0.0
0.0011111111111111111 0.007692307692307693 0.0
0.0011111111111111111 0.00923076923076923 0.0
0.0011111111111111111 0.010769230769230769 0.0
0.0011111111111111111 0.012307692307692308 0.0
0.0011111111111111111 0.013846153846153847 0.0
0.0011111111111111111 0.015384615384615385 0.0
0.0011111111111111111 0.016923076923076923 0.0
0.0011111111111111111 0.01846153846153846 0.0
0.0011111111111111111 0.02 0.0
0.0011111111111111111 0.020555555555555556 0.0
0.0011111111111111111 0.021111111111111112 0.0
0.0011111111111111111 0.021666666666666667 0.0
0.0011111111111111111 0.022222222222222223 0.0
0.0011111111111111111 0.02277777777777778 0.0
0.0011111111111111111 0.023333333333333334 0.0
0.0011111111111111111 0.02388888888888889 0.0
0.0011111111111111111 0.024444444444444446 0.0
0.0011111111111111111 0.025 0.0
0.0011111111111111111 0.036111111111111115 0.0
0.0011111111111111111 0.04722222222222222 0.0
0.0011111111111111111 0.058333333333333334 0.0
0.0011111111111111111 0.06944444444444445 0.0
0.0011111111111111111 0.08055555555555556 0.0
0.0011111111111111111 0.09166666666666667 0.0
0.0011111111111111111 0.10277777777777777 0.0
0.0011111111111111111 0.1138888888888889 0.0
0.0011111111111111111 0.125 0.0
0.0011111111111111111 0.12555555555555556 0.0
0.0011111111111111111 0.12611111111111112 0.0
0.0011111111111111111 0.12666666666666668 0.0
0.0011111111111111111 0.1272222222222222 0.0
0.0011111111111111111 0.12777777777777777 0.0
0.0011111111111111111 0.12833333333333333 0.0
0.0011111111111111111 0.1288888888888889 0.0
0.0011111111111111111 0.12944444444444445 0.0
0.0011111111111111111 0.13 0.0
0.0016666666666666666 0.0 0.0
0.0016666666666666666 0.0015384615384615385 0.0
0.0016666666666666666 0.003076923076923077 0.0
0.0016666666666666666 0.004615384615384615 0.0
0.0016666666666666666 0.006153846153846154 0.0
0.0016666666666666666 0.007692307692307693 0.0
0.0016666666666666666 0.00923076923076923 0.0
0.0016666666666666666 0.010769230769230769 0.0
0.0016666666666666666 0.012307692307692308 0.0
0.0016666666666666666 0.013846153846153847 0.0
0.0016666666666666666 0.015384615384615385 0.0
0.0016666666666666666 0.016923076923076923 0.0
0.0016666666666666666 0.01846153846153846 0.0
0.0016666666666666666 0.02 0.0
0.0016666666666666666 0.020555555555555556 0.0
0.0016666666666666666 0.021111111111111112 0.0
0.0016666666666666666 0.021666666666666667 0.0
0.0016666666666666666 0.022222222222222223 0.0
0.0016666666666666666 0.02277777777777778 0.0
0.0016666666666666666 0.023333333333333334 0.0
0.0016666666666666666 0.02388888888888889 0.0
0.0016666666666666666 0.024444444444444446 0.0
0.0016666666666666666 0.025 0.0
0.0016666666666666666 0.036111111111111115 0.0
0.0016666666666666666 0.04722222222222222 0.0
0.0016666666666666666 0.058333333333333334 0.0
0.0016666666666666666 0.06944444444444445 0.0
0.0016666666666666666 0.08055555555555556 0.0
0.0016666666666666666 0.09166666666666667 0.0
0.0016666666666666666 0.10277777777777777 0.0
0.0016666666666666666 0.1138888888888889 0.0
0.0016666666666666666 0.125 0.0
0.0016666666666666666 0.12555555555555556 0.0
0.0016666666666666666 0.12611111111111112 0.0
0.0016666666666666666 0.12666666666666668 0.0
0.0016666666666666666 0.1272222222222222 0.0
0.0016666666666666666 0.12777777777777777 0.0
0.0016666666666666666 0.12833333333333333 0.0
0.0016666666666666666 0.1288888888888889 0.0
0.0016666666666666666 0.12944444444444445 0.0
0.0016666666666666666 0.13 0.0
0.0022222222222222222 0.0 0.0
0.0022222222222222222 0.0015384615384615385 0.0
0.0022222222222222222 0.003076923076923077 0.0
0.0022222222222222222 0.004615384615384615 0.0
0.0022222222222222222 0.006153846153846154 0.0
0.0022222222222222222 0.007692307692307693 0.0
0.0022222222222222222 0.00923076923076923 0.0
0.0022222222222222222 0.010769230769230769 0.0
0.0022222222222222222 0.012307692307692308 0.0
0.0022222222222222222 0.013846153846153847 0.0
0.0022222222222222222 0.015384615384615385 0.0
0.0022222222222222222 0.016923076923076923 0.0
0.0022222222222222222 0.01846153846153846 0.0
0.0022222222222222222 0.02 0.0
0.0022222222222222222 0.020555555555555556 0.0
0.0022222222222222222 0.021111111111111112 0.0
0.0022222222222222222 0.021666666666666667 0.0
0.0022222222222222222 0.022222222222222223 0.0
0.0022222222222222222 0.02277777777777778 0.0
0.0022222222222222222 0.023333333333333334 0.0
0.0022222222222222222 0.02388888888888889 0.0
0.0022222222222222222 0.024444444444444446 0.0
0.0022222222222222222 0.025 0.0
0.0022222222222222222 0.036111111111111115 0.0
0.0022222222222222222 0.04722222222222222 0.0
0.0022222222222222222 0.058333333333333334 0.0
0.0022222222222222222 0.06944444444444445 0.0
0.0022222222222222222 0.08055555555555556 0.0
0.0022222222222222222 0.09166666666666667 0.0
0.0022222222222222222 0.10277777777777777 0.0
0.0022222222222222222 0.1138888888888889 0.0
0.0022222222222222222 0.125 0.0
0.0022222222222222222 0.12555555555555556 0.0
0.0022222222222222222 0.12611111111111112 0.0
0.0022222222222222222 0.12666666666666668 0.0
0.0022222222222222222 0.1272222222222222 0.0
0.0022222222222222222 0.12777777777777777 0.0
0.0022222222222222222 0.12833333333333333 0.0
0.0022222222222222222 0.1288888888888889 0.0
0.0022222222222222222 0.12944444444444445 0.0
0.0022222222222222222 0.13 0.0
0.002777777777777778 0.0 0.0
0.002777777777777778 0.0015384615384615385 0.0
0.002777777777777778 0.003076923076923077 0.0
0.002777777777777778 0.004615384615384615 0.0
0.002777777777777778 0.006153846153846154 0.0
0.002777777777777778 0.007692307692307693 0.0
0.002777777777777778 0.00923076923076923 0.0
0.002777777777777778 0.010769230769230769 0.0
0.002777777777777778 0.012307692307692308 0.0
0.002777777777777778 0.013846153846153847 0.0
0.002777777777777778 0.015384615384615385 0.0
0.002777777777777778 0.016923076923076923 0.0
0.002777777777777778 0.01846153846153846 0.0
0.002777777777777778 0.02 0.0
0.002777777777777778 0.020555555555555556 0.0
0.002777777777777778 0.021111111111111112 0.0
0.002777777777777778 0.021666666666666667 0.0
0.002777777777777778 0.022222222222222223 0.0
0.002777777777777778 0.02277777777777778 0.0
0.002777777777777778 0.023333333333333334 0.0
0.002777777777777778 0.02388888888888889 0.0
0.002777777777777778 0.024444444444444446 0.0
0.002777777777777778 0.025 0.0
0.002777777777777778 0.036111111111111115 0.0
0.002777777777777778 0.04722222222222222 0.0
0.002777777777777778 0.058333333333333334 0.0
0.002777777777777778 0.06944444444444445 0.0
0.002777777777777778 0.08055555555555556 0.0
0.002777777777777778 0.09166666666666667 0.0
0.002777777777777778 0.10277777777777777 0.0
0.002777777777777778 0.1138888888888889 0.0
0.002777777777777778 0.125 0.0
0.002777777777777778 0.12555555555555556 0.0
0.002777777777777778 0.12611111111111112 0.0
[...]
POINT_DATA 1353
SCALARS Temperatura float 1
LOOKUP_TABLE default
84.72733438490482
84.18874810988054
83.65592458266266
83.12849578462414
82.60613102572201
82.08842968110683
81.57488330102767
81.06482908665215
80.55738858438818
80.05135434204496
79.54506674943899
79.03578164591596
78.52016038978681
77.98069204519976
77.28526442247718
76.62146438498091
75.96752373909275
75.31954731663204
74.67506971842424
74.03247244558737
73.39057806027822
72.74854346770057
72.10584036609217
60.86233854203792
56.77967797289393
55.57919413030041
55.173811155250085
55.041328786078275
54.974108684281845
54.88136902168359
54.59948715341507
53.84174453642215
53.80103638829579
53.760879303808494
53.72135309861748
53.68252573857368
53.64445393652828
53.607183624789364
53.57075024114951
53.53517884566207
53.500484131016364
84.7466311978497
84.20793173318982
83.67496785285769
83.14740387126227
82.62490949491244
82.10708702111768
81.59343040201192
81.08328124905941
80.57576426015292
80.0696949398556
79.56337524726855
79.05438121631659
78.53817960723278
78.00558076749427
77.33734264608532
76.67577934268795
76.02301599313553
75.37545947652882
74.73109330563591
74.08841436579145
73.44628444995564
72.80386221854462
72.1606050827933
60.892018272353035
56.81639660676285
55.615615766564254
55.210518336109615
55.0780886536625
55.01090282403667
54.91814504313066
54.63677776668725
53.877089841854215
53.836293069821124
53.79605417273129
53.75645272278698
53.71755642931059
53.679421816706196
53.64209472565691
53.60561058406818
53.569994485486056
53.535261159124396
84.76602549911144
84.22727121049726
83.69420792396298
83.16655090289815
82.64397855842635
82.1261003944774
81.61241860762456
81.10228604473106
80.5948468080983
80.08894261105323
79.58295136634032
79.07453460725925
78.55958380205688
78.03387156619216
77.37760683201805
76.72445578717233
76.0755325279334
75.4303353730996
74.78752682489495
74.14588930570052
73.50436889985716
72.86211485605604
72.2185306987241
60.897317030286786
56.85142181846417
55.652099233671926
55.24871890156391
55.116708099328996
55.04976709345503
54.95713666176004
54.677907171429176
53.91391420030621
53.87293499222971
53.83253309260304
53.79278704656105
53.7537635698168
53.7155184807334
53.678097274923985
53.641535324521186
53.60585781731383
53.571079591695394
84.78554669772713
84.246767624625
83.71364408455834
83.18593516691303
82.66333558716887
82.14546621979761
81.63184270045294
81.12183684871242
80.6146224712604
80.10909046706102
79.60372007367782
79.09632617455448
78.58370432276945
78.06379274978822
77.41601289979461
76.76999684874374
76.12633554762218
75.48485700173013
74.84483666725657
74.2053030096136
73.5652606396239
72.9237960891347
72.28018468499718
60.877722235302194
56.88500859191051
55.68857596312014
55.28843922819264
55.15718198918297
55.090710171412695
54.998328200190706
54.72291120263168
53.952199200097255
53.91094456804614
53.87029964940771
53.83034073931393
53.79113255457452
53.75272963393888
53.71517697764969
53.678510023546416
53.64275426152393
53.60792480250769
84.80521009606845
84.26642466876909
83.73327478718903
83.20555372849739
82.68297619433818
82.16517843483658
81.65169431627254
81.14192146263154
80.6350734868482
80.1301089570116
79.62562626736947
79.11969102023248
78.60990853619889
78.09510071753418
77.45439268311226
76.81486749533929
76.17675155084608
75.53986759807452
74.90364925004187
74.26724406732235
73.62962748981263
72.98972061405584
72.34654032875457
60.83237839188142
56.91759330578929
55.724926831141914
55.329724195234604
55.1994996936862
55.133745642025325
55.04169135274463
54.771847832759235
53.991912169243164
53.95029116659147
53.909325761889136
53.8690878843133
53.82963875671513
53.791031040751726
53.753309408418986
53.716509860018
53.680658676515854
53.64577154627675
84.8250238919333
84.286245110201
83.75309793573248
83.22540234920112
82.7028942620727
82.1852286442734
81.67196186198868
81.16252329847497
80.6561754495734
80.15195771242405
79.64860775705807
79.14448161616689
78.63779263298828
78.12771329814551
77.49347659450498
76.86016566781028
76.22779257035693
75.5961137832745
74.96458838045999
74.3323674843506
73.69830378671907
73.06100870705431
72.4190280854211
60.76005847379276
56.94980972531383
55.76097468745964
55.37264020025831
55.24364382561018
55.17889281516846
55.08718416660458
54.82479849147817
54.03300458727456
53.99093064905402
53.94957220577411
53.90899307240152
53.869248534553016
53.83038912198783
53.79246015337118
53.75549951150202
53.71953511261688
53.68458367590925
84.8449919805816
84.30622991951884
83.77311057097324
83.2454755141941
82.72308198351939
82.20560622853966
81.69263075021114
81.18362173720132
80.67789784354389
80.17458906606896
79.67258714494335
79.17053509969271
78.66708544903854
78.16156056716748
77.53357148642544
76.90642884968157
76.2800321726948
75.65410161073356
75.02811549256434
74.40123641492674
73.77216405264377
73.13905102015849
72.49962441347847
60.659118593398254
56.98251321014808
55.79647319108747
55.417279663385976
55.289588352259294
55.22617794207915
55.13474955096082
54.88187002529282
54.0754095643755
54.0328046500766
53.99099024826455
53.95001378278694
53.90992136113575
53.87076156300281
53.832584768085674
53.795432813805235
53.75933635419226
53.724313654648476
84.86511524080467
84.3263781701399
83.79330861251788
83.26576643511109
82.7435299288056
82.22629848281994
81.71368367255593
81.20519251354786
80.70020517041569
80.19794895502973
79.69747641444982
79.19769576320112
78.69758527971835
78.1965571020739
77.57477968798862
76.95388125313679
76.3337229457216
75.71404275142257
75.09439735397531
74.47406929958899
73.851879244816
73.22539093748969
72.59100415954572
60.527427990042405
57.01681576736342
55.83109101277466
55.46376737508531
55.337295937712334
55.27563590378416
55.184313235553795
54.94319744031402
54.11903801452846
54.07583972738695
54.033522993883736
53.992110149938334
53.95161137121895
53.91209735098902
53.87362822579342
53.836252050804156
53.800003181108785
53.76490181774688
84.88539222260728
84.34668715097057
83.81368673150378
83.28626704959301
82.76422712753444
82.24729078266988
81.73510088839782
81.22720822336957
80.72305794110468
80.22197820565295
79.72318233665821
79.22581923140221
78.72912563057164
78.23259876446664
77.61708292290945
77.00255074728075
76.38887621437385
75.77586577448777
75.1632270747237
74.55051788740515
73.9370152270535
73.32158837821282
72.6968011976438
60.36226079565503
57.05413631066011
55.8643898991654
55.512269231275454
55.386714319255915
55.32731240919409
55.23578134852915
55.008946586661715
54.16377687628055
54.11987622325698
54.07717558692929
54.03524445771316
53.994266765546016
53.95433533107807
53.91552356494178
53.877886783636036
53.84146334107646
53.80627539694521
84.90581957557607
84.36715252986745
83.83423832027242
83.30696803794167
82.7851611644732
82.26856676674595
81.75686053616735
81.24963887350378
80.74641360468812
80.2466141691932
79.74961007447449
79.25477072791058
78.76155724778525
78.26956539678764
77.66038809227106
77.05233954265933
76.44533366769774
75.83927250295754
75.23405426878931
74.6295984572898
74.02590499031356
73.42317656079128
57.81690953282583
57.81690953282583
57.81690953282583
57.81690953282583
57.81690953282583
57.81690953282583
57.81690953282583
57.81690953282583
57.81690953282583
57.81690953282583
54.16537236672074
54.12193985689598
54.07937540514257
54.03782458987501
53.997400994910926
53.95818968574058
53.92025228487389
53.88363033240928
53.848347415016704
85.31356833744296
84.77617629888552
84.24647301048277
83.72452165745607
83.2104289992348
82.70435557466426
82.20653225697127
81.71728434194887
81.23706451652936
80.76649605037747
80.30642680494364
79.85799415372558
79.42270753994941
79.00257790611644
78.49358259357638
77.98852109416073
77.48793982346336
76.99241855215055
76.50257591737426
76.01907098625932
75.54259623629267
75.07385382754222
57.81690953282583
57.81690953282583
57.81690953282583
57.81690953282583
57.81690953282583
57.81690953282583
57.81690953282583
57.81690953282583
57.81690953282583
57.81690953282583
55.03172594348083
54.96451382353161
54.90198628395854
54.843945224943774
54.79023013046517
54.74071441298978
54.69530193478457
54.653924523298734
54.616540298035
85.69317203588038
85.15664944632566
84.62892362248087
84.11003975433643
83.60006780355144
83.09910102392286
82.60725276711241
82.12465054415372
81.6514258121626
81.18769731298399
80.73354509647545
80.28897128215364
79.85384012040899
79.42778097696059
78.9056407353949
78.38553383240244
77.86727666348888
77.35066222525587
76.83545367404727
76.32137838767981
75.80812368577634
75.2953363574881
57.81690953282583
57.81690953282583
57.81690953282583
57.81690953282583
57.81690953282583
57.81690953282583
57.81690953282583
57.81690953282583
57.81690953282583
57.81690953282583
55.26583038338646
55.21397057726743
55.164035815318634
55.116132666607555
55.070345544032094
55.026739425956805
54.98536214137227
54.94624604510757
54.90940916610968
85.99525848835448
85.45897540837117
84.93145795130792
84.41271444098035
83.90275292476221
83.40157976737449
82.90919788456524
82.42560485934501
81.95079139901509
81.4847409341594
81.02743165953484
80.57884313610057
80.13897139594634
79.70786046194641
79.17963232553439
78.65370982971224
78.1301376698062
77.60896991494587
77.09027329764349
76.57413065718657
76.06064429672014
75.54993873951823
57.81690953282583
57.81690953282583
57.81690953282583
57.81690953282583
57.81690953282583
57.81690953282583
57.81690953282583
57.81690953282583
57.81690953282583
57.81690953282583
55.35232958076883
55.30012972896878
55.250196135845705
55.20249292215685
55.15699216104845
55.11367244460304
55.07251773518653
55.03351652338308
54.99666125193545
86.21455309551335
85.67832575657557
85.15061240329781
84.63141697601847
84.12074146737169
83.61858608660522
83.12494952077105
82.63982930788369
82.16322229253248
81.69512503763316
81.23553388910568
80.78444405452306
80.34184631298183
79.90771836980231
79.37546734330249
78.84541406834096
78.31754418067828
77.79183998023407
77.26827912131985
76.74683314945165
76.22746591579254
75.71013197262394
57.81690953282583
57.81690953282583
57.81690953282583
57.81690953282583
57.81690953282583
57.81690953282583
57.81690953282583
57.81690953282583
57.81690953282583
57.81690953282583
55.378420367901214
55.32736032129838
55.27831339910997
55.231290280226474
55.1862985223836
55.14334317296768
55.10242724463946
55.063552060997836
55.026717491288004
86.36165678958902
85.82545730372047
85.29758508792379
84.77804437447165
84.26683763243807
83.7639655421818
83.26942694186921
82.7832187286835
82.30533570170728
81.83577035177271
81.37451264836908
80.92154997693595
80.47686763227617
80.04045085166001
79.50523719751747
78.97221287507504
78.44137833447432
77.91273501786574
77.38628582462121
76.86203565724611
76.33999205313266
75.8201658895077
57.81690953282583
57.81690953282583
57.81690953282583
57.81690953282583
57.81690953282583
57.81690953282583
57.81690953282583
57.81690953282583
57.81690953282583
57.81690953282583
55.387344570330306
55.336359943590516
55.287409495668825
55.240487985093154
55.19559110310629
55.1527152360469
55.11185728454234
55.07301453363905
55.03618456551452
86.44612352435382
85.90993881799501
85.38197165028025
84.8622261672886
84.35070476398391
83.84740808275843
83.3523350178045
82.86548273238206
82.38684669769509
81.91642076112963
81.45419724364072
81.00016703919384
80.55431960964209
80.11664256535208
79.57979923033656
79.0451311654201
78.51263573857814
77.98230994141636
77.4541502245965
76.92815229552207
76.40431087111475
75.88261938248829
57.81690953282583
57.81690953282583
57.81690953282583
57.81690953282583
57.81690953282583
57.81690953282583
57.81690953282583
57.81690953282583
57.81690953282583
57.81690953282583
55.39007320268615
55.339182132431425
55.29030337752192
55.24343630595161
55.19857989936944
55.15573284526112
55.11489360547051
55.076060464662206
55.03923156248607
86.47365332505879
85.93747325236541
85.40947461177886
84.8896615962915
84.37803670626282
83.87460075604915
83.379352881619
82.8922905457125
82.41340953529703
81.94270394473386
81.48016613945045
81.02578670573307
80.5795544322639
80.14145648225126
79.6040668479236
79.06884892000166
78.53580104097632
78.00492168589076
77.47620955682098
76.94966370250536
76.42528366932265
75.90306968843767
57.81690953282583
57.81690953282583
57.81690953282583
57.81690953282583
57.81690953282583
57.81690953282583
57.81690953282583
57.81690953282583
57.81690953282583
57.81690953282583
55.39071200697572
55.339826341310406
55.29095559059492
55.24409732234573
55.19924926553255
55.156409254224315
55.11557518633787
55.07674499479487
55.03991662857407
86.44612352435435
85.90993881799555
85.38197165028075
84.86222616728907
84.35070476398431
83.84740808275875
83.3523350178048
82.8654827323824
82.38684669769549
81.91642076113004
81.45419724364113
81.0001670391943
80.55431960964256
80.11664256535256
79.57979923033707
79.04513116542059
78.51263573857861
77.9823099414168
77.45415022459693
76.92815229552248
76.40431087111516
75.88261938248874
57.81690953282583
57.81690953282583
57.81690953282583
57.81690953282583
57.81690953282583
57.81690953282583
57.81690953282583
57.81690953282583
57.81690953282583
57.81690953282583
55.390073202686686
55.33918213243199
55.2903033775225
55.24343630595217
55.19857989937001
55.15573284526172
55.114893605471124
55.07606046466281
55.03923156248667
86.36165678958977
85.82545730372122
85.29758508792457
84.7780443744724
84.26683763243882
83.7639655421825
83.2694269418699
82.78321872868416
82.30533570170793
81.83577035177338
81.37451264836976
80.92154997693663
80.47686763227685
80.04045085166072
79.50523719751817
78.97221287507571
78.44137833447499
77.91273501786641
77.3862858246219
76.8620356572468
76.33999205313336
75.82016588950837
57.81690953282583
57.81690953282583
57.81690953282583
57.81690953282583
57.81690953282583
57.81690953282583
57.81690953282583
57.81690953282583
57.81690953282583
57.81690953282583
55.38734457033163
55.33635994359186
55.2874094956702
55.240487985094575
55.1955911031077
55.15271523604831
55.11185728454376
55.07301453364048
55.03618456551595
86.21455309551389
85.67832575657609
85.15061240329828
84.63141697601893
84.12074146737213
83.61858608660566
83.12494952077147
82.63982930788407
82.16322229253285
81.69512503763353
81.23553388910608
80.7844440545235
80.3418463129823
79.9077183698028
79.37546734330299
78.84541406834147
78.31754418067877
77.79183998023451
77.2682791213202
76.74683314945193
76.22746591579276
75.71013197262414
57.81690953282583
57.81690953282583
57.81690953282583
57.81690953282583
57.81690953282583
57.81690953282583
57.81690953282583
57.81690953282583
57.81690953282583
57.81690953282583
55.37842036790448
55.32736032130175
55.2783133991134
55.2312902802299
55.18629852238702
55.14334317297106
55.102427244642755
55.063552061001054
55.02671749129119
85.99525848835486
85.45897540837157
84.93145795130837
84.41271444098082
83.90275292476267
83.40157976737493
82.9091978845657
82.42560485934547
81.95079139901557
81.48474093415986
81.0274316595353
80.57884313610099
80.13897139594674
79.7078604619468
79.17963232553478
78.6537098297126
78.13013766980659
77.60896991494629
77.09027329764402
76.57413065718714
76.06064429672072
75.54993873951881
57.81690953282583
57.81690953282583
57.81690953282583
57.81690953282583
57.81690953282583
57.81690953282583
57.81690953282583
57.81690953282583
57.81690953282583
57.81690953282583
55.352329580771446
55.30012972897144
55.25019613584842
55.20249292215963
55.15699216105127
55.11367244460589
55.07251773518942
55.03351652338603
54.99666125193842
85.69317203588011
85.15664944632537
84.62892362248056
84.1100397543361
83.60006780355113
83.09910102392257
82.60725276711213
82.12465054415345
81.65142581216232
81.18769731298374
80.7335450964753
80.28897128215354
79.85384012040892
79.42778097696056
78.90564073539487
78.38553383240246
77.86727666348888
77.35066222525589
76.83545367404724
76.32137838767976
75.80812368577625
75.29533635748797
57.81690953282583
57.81690953282583
57.81690953282583
57.81690953282583
57.81690953282583
57.81690953282583
57.81690953282583
57.81690953282583
57.81690953282583
57.81690953282583
55.26583038338845
55.21397057726945
55.16403581532066
55.11613266660958
55.07034554403412
55.02673942595883
54.98536214137426
54.94624604510953
54.90940916611164
85.31356833744239
84.77617629888496
84.24647301048219
83.72452165745548
83.21042899923424
82.70435557466375
82.20653225697082
81.71728434194839
81.2370645165289
80.76649605037707
80.3064268049433
79.85799415372531
79.42270753994914
79.00257790611622
78.49358259357619
77.98852109416053
77.4879398234632
76.99241855215037
76.50257591737409
76.01907098625914
75.54259623629247
75.07385382754202
57.81690953282583
57.81690953282583
57.81690953282583
57.81690953282583
57.81690953282583
57.81690953282583
57.81690953282583
57.81690953282583
57.81690953282583
57.81690953282583
55.031725943482144
54.964513823532954
54.901986283959936
54.843945224945195
54.7902301304666
54.74071441299121
54.69530193478602
54.65392452330022
54.61654029803648
84.90581957557522
84.3671525298666
83.83423832027171
83.30696803794105
82.78516116447273
82.26856676674561
81.75686053616704
81.24963887350347
80.74641360468785
80.24661416919287
79.74961007447413
79.25477072791023
78.76155724778498
78.2695653967874
77.6603880922709
77.05233954265933
76.44533366769784
75.83927250295775
75.23405426878962
74.62959845729019
74.025904990314
73.42317656079173
57.81690953282583
57.81690953282583
57.81690953282583
57.81690953282583
57.81690953282583
57.81690953282583
57.81690953282583
57.81690953282583
57.81690953282583
57.81690953282583
54.16537236672223
54.12193985689751
54.07937540514412
54.037824589876614
53.99740099491256
53.95818968574221
53.920252284875495
53.883630332410824
53.84834741501823
84.88539222260634
84.34668715096974
83.81368673150304
83.2862670495924
82.76422712753404
82.24729078266951
81.7351008883975
81.22720822336927
80.72305794110439
80.22197820565259
79.72318233665779
79.22581923140186
78.72912563057133
78.2325987644664
77.61708292290928
77.00255074728074
76.388876214374
75.77586577448797
75.16322707472405
74.55051788740559
73.93701522705393
73.32158837821332
72.69680119764432
60.36226079565646
57.05413631066003
55.86438989916532
55.5122692312764
55.386714319256285
55.32731240919475
55.23578134852958
55.00894658666094
54.16377687628199
54.11987622325845
54.077175586930785
54.03524445771469
53.994266765547565
53.95433533107964
53.915523564943335
53.8778867836376
53.84146334107799
53.80627539694673
84.86511524080375
84.32637817013908
83.7933086125172
83.26576643511052
82.74352992880517
82.22629848281962
81.71368367255558
81.2051925135475
80.70020517041543
80.19794895502939
79.69747641444947
79.19769576320077
78.69758527971798
78.19655710207368
77.57477968798854
76.95388125313679
76.33372294572173
75.71404275142282
75.09439735397565
74.47406929958942
73.85187924481652
73.22539093749026
72.59100415954633
60.52742799004386
57.01681576736338
55.83109101277466
55.46376737508626
55.337295937712724
55.27563590378483
55.18431323555426
54.943197440313234
54.119038014529934
54.07583972738842
54.03352299388524
53.99211014993986
53.95161137122046
53.91209735099052
53.873628225794945
53.83625205080567
53.80000318111029
53.76490181774836
84.84499198058063
84.30622991951799
83.77311057097253
83.24547551419347
82.72308198351901
82.20560622853937
81.69263075021078
81.18362173720095
80.67789784354359
80.17458906606865
79.67258714494298
79.17053509969236
78.66708544903821
78.16156056716731
77.53357148642537
76.90642884968159
76.28003217269496
75.65410161073383
75.02811549256474
74.40123641492718
73.77216405264429
73.13905102015913
72.49962441347918
60.659118593399725
56.982513210148106
55.79647319108755
55.41727966338696
55.289588352259685
55.22617794207979
55.13474955096136
54.881870025292024
54.07540956437698
54.03280465007806
53.99099024826602
53.950013782788425
53.90992136113724
53.870761563004294
53.83258476808716
53.79543281380671
53.759336354193714
53.724313654649926
84.82502389193239