# vtk DataFile Version 2.0
Niestacjonarne zagadnienie cieplne - ogrzewanie wody w garnku stalowym
ASCII
DATASET UNSTRUCTURED_GRID
POINTS 1353 float
0.0 0.0 0.0
0.0 0.0015384615384615385 0.0
0.0 0.003076923076923077 0.0
0.0 0.004615384615384615 0.0
0.0 0.006153846153846154 0.0
0.0 0.007692307692307693 0.0
0.0 0.00923076923076923 0.0
0.0 0.010769230769230769 0.0
0.0 0.012307692307692308 0.0
0.0 0.013846153846153847 0.0
0.0 0.015384615384615385 0.0
0.0 0.016923076923076923 0.0
0.0 0.01846153846153846 0.0
0.0 0.02 0.0
0.0 0.020555555555555556 0.0
0.0 0.021111111111111112 0.0
0.0 0.021666666666666667 0.0
0.0 0.022222222222222223 0.0
0.0 0.02277777777777778 0.0
0.0 0.023333333333333334 0.0
0.0 0.02388888888888889 0.0
0.0 0.024444444444444446 0.0
0.0 0.025 0.0
0.0 0.036111111111111115 0.0
0.0 0.04722222222222222 0.0
0.0 0.058333333333333334 0.0
0.0 0.06944444444444445 0.0
0.0 0.08055555555555556 0.0
0.0 0.09166666666666667 0.0
0.0 0.10277777777777777 0.0
0.0 0.1138888888888889 0.0
0.0 0.125 0.0
0.0 0.12555555555555556 0.0
0.0 0.12611111111111112 0.0
0.0 0.12666666666666668 0.0
0.0 0.1272222222222222 0.0
0.0 0.12777777777777777 0.0
0.0 0.12833333333333333 0.0
0.0 0.1288888888888889 0.0
0.0 0.12944444444444445 0.0
0.0 0.13 0.0
5.555555555555556E-4 0.0 0.0
5.555555555555556E-4 0.0015384615384615385 0.0
5.555555555555556E-4 0.003076923076923077 0.0
5.555555555555556E-4 0.004615384615384615 0.0
5.555555555555556E-4 0.006153846153846154 0.0
5.555555555555556E-4 0.007692307692307693 0.0
5.555555555555556E-4 0.00923076923076923 0.0
5.555555555555556E-4 0.010769230769230769 0.0
5.555555555555556E-4 0.012307692307692308 0.0
5.555555555555556E-4 0.013846153846153847 0.0
5.555555555555556E-4 0.015384615384615385 0.0
5.555555555555556E-4 0.016923076923076923 0.0
5.555555555555556E-4 0.01846153846153846 0.0
5.555555555555556E-4 0.02 0.0
5.555555555555556E-4 0.020555555555555556 0.0
5.555555555555556E-4 0.021111111111111112 0.0
5.555555555555556E-4 0.021666666666666667 0.0
5.555555555555556E-4 0.022222222222222223 0.0
5.555555555555556E-4 0.02277777777777778 0.0
5.555555555555556E-4 0.023333333333333334 0.0
5.555555555555556E-4 0.02388888888888889 0.0
5.555555555555556E-4 0.024444444444444446 0.0
5.555555555555556E-4 0.025 0.0
5.555555555555556E-4 0.036111111111111115 0.0
5.555555555555556E-4 0.04722222222222222 0.0
5.555555555555556E-4 0.058333333333333334 0.0
5.555555555555556E-4 0.06944444444444445 0.0
5.555555555555556E-4 0.08055555555555556 0.0
5.555555555555556E-4 0.09166666666666667 0.0
5.555555555555556E-4 0.10277777777777777 0.0
5.555555555555556E-4 0.1138888888888889 0.0
5.555555555555556E-4 0.125 0.0
5.555555555555556E-4 0.12555555555555556 0.0
5.555555555555556E-4 0.12611111111111112 0.0
5.555555555555556E-4 0.12666666666666668 0.0
5.555555555555556E-4 0.1272222222222222 0.0
5.555555555555556E-4 0.12777777777777777 0.0
5.555555555555556E-4 0.12833333333333333 0.0
5.555555555555556E-4 0.1288888888888889 0.0
5.555555555555556E-4 0.12944444444444445 0.0
5.555555555555556E-4 0.13 0.0
0.0011111111111111111 0.0 0.0
0.0011111111111111111 0.0015384615384615385 0.0
0.0011111111111111111 0.003076923076923077 0.0
0.0011111111111111111 0.004615384615384615 0.0
0.0011111111111111111 0.006153846153846154 0.0
0.0011111111111111111 0.007692307692307693 0.0
0.0011111111111111111 0.00923076923076923 0.0
0.0011111111111111111 0.010769230769230769 0.0
0.0011111111111111111 0.012307692307692308 0.0
0.0011111111111111111 0.013846153846153847 0.0
0.0011111111111111111 0.015384615384615385 0.0
0.0011111111111111111 0.016923076923076923 0.0
0.0011111111111111111 0.01846153846153846 0.0
0.0011111111111111111 0.02 0.0
0.0011111111111111111 0.020555555555555556 0.0
0.0011111111111111111 0.021111111111111112 0.0
0.0011111111111111111 0.021666666666666667 0.0
0.0011111111111111111 0.022222222222222223 0.0
0.0011111111111111111 0.02277777777777778 0.0
0.0011111111111111111 0.023333333333333334 0.0
0.0011111111111111111 0.02388888888888889 0.0
0.0011111111111111111 0.024444444444444446 0.0
0.0011111111111111111 0.025 0.0
0.0011111111111111111 0.036111111111111115 0.0
0.0011111111111111111 0.04722222222222222 0.0
0.0011111111111111111 0.058333333333333334 0.0
0.0011111111111111111 0.06944444444444445 0.0
0.0011111111111111111 0.08055555555555556 0.0
0.0011111111111111111 0.09166666666666667 0.0
0.0011111111111111111 0.10277777777777777 0.0
0.0011111111111111111 0.1138888888888889 0.0
0.0011111111111111111 0.125 0.0
0.0011111111111111111 0.12555555555555556 0.0
0.0011111111111111111 0.12611111111111112 0.0
0.0011111111111111111 0.12666666666666668 0.0
0.0011111111111111111 0.1272222222222222 0.0
0.0011111111111111111 0.12777777777777777 0.0
0.0011111111111111111 0.12833333333333333 0.0
0.0011111111111111111 0.1288888888888889 0.0
0.0011111111111111111 0.12944444444444445 0.0
0.0011111111111111111 0.13 0.0
0.0016666666666666666 0.0 0.0
0.0016666666666666666 0.0015384615384615385 0.0
0.0016666666666666666 0.003076923076923077 0.0
0.0016666666666666666 0.004615384615384615 0.0
0.0016666666666666666 0.006153846153846154 0.0
0.0016666666666666666 0.007692307692307693 0.0
0.0016666666666666666 0.00923076923076923 0.0
0.0016666666666666666 0.010769230769230769 0.0
0.0016666666666666666 0.012307692307692308 0.0
0.0016666666666666666 0.013846153846153847 0.0
0.0016666666666666666 0.015384615384615385 0.0
0.0016666666666666666 0.016923076923076923 0.0
0.0016666666666666666 0.01846153846153846 0.0
0.0016666666666666666 0.02 0.0
0.0016666666666666666 0.020555555555555556 0.0
0.0016666666666666666 0.021111111111111112 0.0
0.0016666666666666666 0.021666666666666667 0.0
0.0016666666666666666 0.022222222222222223 0.0
0.0016666666666666666 0.02277777777777778 0.0
0.0016666666666666666 0.023333333333333334 0.0
0.0016666666666666666 0.02388888888888889 0.0
0.0016666666666666666 0.024444444444444446 0.0
0.0016666666666666666 0.025 0.0
0.0016666666666666666 0.036111111111111115 0.0
0.0016666666666666666 0.04722222222222222 0.0
0.0016666666666666666 0.058333333333333334 0.0
0.0016666666666666666 0.06944444444444445 0.0
0.0016666666666666666 0.08055555555555556 0.0
0.0016666666666666666 0.09166666666666667 0.0
0.0016666666666666666 0.10277777777777777 0.0
0.0016666666666666666 0.1138888888888889 0.0
0.0016666666666666666 0.125 0.0
0.0016666666666666666 0.12555555555555556 0.0
0.0016666666666666666 0.12611111111111112 0.0
0.0016666666666666666 0.12666666666666668 0.0
0.0016666666666666666 0.1272222222222222 0.0
0.0016666666666666666 0.12777777777777777 0.0
0.0016666666666666666 0.12833333333333333 0.0
0.0016666666666666666 0.1288888888888889 0.0
0.0016666666666666666 0.12944444444444445 0.0
0.0016666666666666666 0.13 0.0
0.0022222222222222222 0.0 0.0
0.0022222222222222222 0.0015384615384615385 0.0
0.0022222222222222222 0.003076923076923077 0.0
0.0022222222222222222 0.004615384615384615 0.0
0.0022222222222222222 0.006153846153846154 0.0
0.0022222222222222222 0.007692307692307693 0.0
0.0022222222222222222 0.00923076923076923 0.0
0.0022222222222222222 0.010769230769230769 0.0
0.0022222222222222222 0.012307692307692308 0.0
0.0022222222222222222 0.013846153846153847 0.0
0.0022222222222222222 0.015384615384615385 0.0
0.0022222222222222222 0.016923076923076923 0.0
0.0022222222222222222 0.01846153846153846 0.0
0.0022222222222222222 0.02 0.0
0.0022222222222222222 0.020555555555555556 0.0
0.0022222222222222222 0.021111111111111112 0.0
0.0022222222222222222 0.021666666666666667 0.0
0.0022222222222222222 0.022222222222222223 0.0
0.0022222222222222222 0.02277777777777778 0.0
0.0022222222222222222 0.023333333333333334 0.0
0.0022222222222222222 0.02388888888888889 0.0
0.0022222222222222222 0.024444444444444446 0.0
0.0022222222222222222 0.025 0.0
0.0022222222222222222 0.036111111111111115 0.0
0.0022222222222222222 0.04722222222222222 0.0
0.0022222222222222222 0.058333333333333334 0.0
0.0022222222222222222 0.06944444444444445 0.0
0.0022222222222222222 0.08055555555555556 0.0
0.0022222222222222222 0.09166666666666667 0.0
0.0022222222222222222 0.10277777777777777 0.0
0.0022222222222222222 0.1138888888888889 0.0
0.0022222222222222222 0.125 0.0
0.0022222222222222222 0.12555555555555556 0.0
0.0022222222222222222 0.12611111111111112 0.0
0.0022222222222222222 0.12666666666666668 0.0
0.0022222222222222222 0.1272222222222222 0.0
0.0022222222222222222 0.12777777777777777 0.0
0.0022222222222222222 0.12833333333333333 0.0
0.0022222222222222222 0.1288888888888889 0.0
0.0022222222222222222 0.12944444444444445 0.0
0.0022222222222222222 0.13 0.0
0.002777777777777778 0.0 0.0
0.002777777777777778 0.0015384615384615385 0.0
0.002777777777777778 0.003076923076923077 0.0
0.002777777777777778 0.004615384615384615 0.0
0.002777777777777778 0.006153846153846154 0.0
0.002777777777777778 0.007692307692307693 0.0
0.002777777777777778 0.00923076923076923 0.0
0.002777777777777778 0.010769230769230769 0.0
0.002777777777777778 0.012307692307692308 0.0
0.002777777777777778 0.013846153846153847 0.0
0.002777777777777778 0.015384615384615385 0.0
0.002777777777777778 0.016923076923076923 0.0
0.002777777777777778 0.01846153846153846 0.0
0.002777777777777778 0.02 0.0
0.002777777777777778 0.020555555555555556 0.0
0.002777777777777778 0.021111111111111112 0.0
0.002777777777777778 0.021666666666666667 0.0
0.002777777777777778 0.022222222222222223 0.0
0.002777777777777778 0.02277777777777778 0.0
0.002777777777777778 0.023333333333333334 0.0
0.002777777777777778 0.02388888888888889 0.0
0.002777777777777778 0.024444444444444446 0.0
0.002777777777777778 0.025 0.0
0.002777777777777778 0.036111111111111115 0.0
0.002777777777777778 0.04722222222222222 0.0
0.002777777777777778 0.058333333333333334 0.0
0.002777777777777778 0.06944444444444445 0.0
0.002777777777777778 0.08055555555555556 0.0
0.002777777777777778 0.09166666666666667 0.0
0.002777777777777778 0.10277777777777777 0.0
0.002777777777777778 0.1138888888888889 0.0
0.002777777777777778 0.125 0.0
0.002777777777777778 0.12555555555555556 0.0
0.002777777777777778 0.12611111111111112 0.0
[...]
POINT_DATA 1353
SCALARS Temperatura float 1
LOOKUP_TABLE default
62.29409393275836
61.73760256729702
61.18804826874558
60.645082441213376
60.10840784595585
59.57767430505263
59.052445816892224
58.532162785124946
58.01609451949427
57.50325728618817
56.992322176675685
56.48120666620051
55.96734415237435
55.43939270487596
54.768756171774434
54.11781483151887
53.47304652543903
52.8318616027107
52.1925521260051
51.553944030322405
50.91516314660673
50.27558955592102
49.63486945498381
38.38881891211808
34.30380376176664
33.104343203590794
32.70057018572176
32.572296359906105
32.51804514276814
32.463721603558994
32.311576744756714
31.91132380585543
31.891729063016548
31.872769602007086
31.854536080891645
31.83711095166018
31.82056633582734
31.804962439493888
31.79034651218879
31.776752252242783
31.764199519644578
62.30671448861336
61.750104209396504
61.20040336142821
60.65729558895055
60.120483877667525
59.5896206602768
59.06427188758972
58.54388125818004
58.027720759059356
57.51482167150109
57.00383301975213
56.49286935823145
55.978637666165874
55.45486477922454
54.800709033600334
54.15098971542757
53.506794562270066
52.86571681437731
52.22631857535206
51.587489077608666
50.94836798795396
50.308323971568576
49.6669810776729
38.39562299026651
34.31768674158367
33.11792197095207
32.714434878611925
32.58621177445829
32.53198642148844
32.4776505369443
32.325812789169824
31.92434136593205
31.904676859408546
31.885651149797244
31.86735629745285
31.849875925128487
31.833283017881175
31.817638343317785
31.80298946990999
31.78937025053528
31.77680060447389
62.319433239805655
61.762761625941316
61.212952753143334
60.6697409291527
60.132837302809
59.60190060328746
59.07650345859189
58.556098288019285
58.03997129092809
57.52717289861714
57.01640277410547
56.50583318117881
55.992437155587645
55.472954822525914
54.826187433715184
54.181675249894084
53.53989069226756
52.90031205158352
52.26190417769786
51.6237097522313
50.984889383344196
50.34476728588558
49.70289207016802
38.378254243741736
34.33016799792206
33.13183787252199
32.730065673711856
32.602247206742696
32.548214052877626
32.49394730000751
32.34335215683583
31.939035203899298
31.919199956902226
31.900012844950403
31.881570118066602
31.86395881693461
31.84725435179619
31.83151897787499
31.816801035909528
31.80313470001703
31.79053998041344
62.33227990002927
61.77557621580104
61.22569608476712
60.68241716808364
60.145466029805604
59.614511261605365
59.089136421191114
58.56880860587112
58.05283609070668
57.540304590659524
57.02998272043101
56.52014591541715
56.008329437794416
55.49259247390882
54.85127960990295
54.211401867686305
53.57311140902571
52.93608086022675
52.29963139288517
51.662922374681784
51.02509817819127
50.38537540192419
49.74314514099754
38.33620375600994
34.341502466284815
33.146022655688526
32.74748910178417
32.62039848571884
32.56673502488036
32.51260380837946
32.36421639078508
31.955402820074465
31.935291148721355
31.915843104762992
31.897162472337115
31.87934216635979
31.862461479429587
31.846584809383675
31.83176143094711
31.818025775679367
31.805397836236974
62.34527027610865
61.78855219563513
61.23863239171313
60.69532206579649
60.15836655284388
59.62744777087768
59.10216411258121
58.58200270629283
58.06630158742455
57.554195064097506
57.04453437863784
56.53576138886961
56.025921521375196
55.513626888808325
54.87710018452955
54.241670175939824
53.607267421485595
52.973555395289665
52.33993222652843
51.705587852475325
51.06957542449238
50.43090332057898
49.78867385867798
38.268621609473016
34.35212633040706
33.160357520219286
32.766750099368124
32.640656464393295
32.58755980803143
32.533604644911996
32.38843933406986
31.973439404016634
31.95293689485881
31.93312048067704
31.9141059508524
31.8959948163719
31.87887131081398
31.862802004732334
31.847836697883785
31.83400961454301
31.82134038830422
62.35841326544912
61.8016930583855
61.25176038518356
60.70845234369089
60.17153396965443
59.64070337241014
59.115577279624915
58.595667591766826
58.08034908247545
57.56881461406143
57.06001299866786
56.55258049588194
56.044956145733615
55.535995834438374
54.90407882041469
54.27313192902131
53.64296194127886
53.01319329038268
52.383227956116336
51.752217991919395
51.1190526563139
50.48239716932325
49.840856513106424
38.17428780645058
34.36267311093327
33.1746656317688
32.787915000047555
32.66300584504207
32.61070294268264
32.556926575025386
32.41606734696393
31.9931387748634
31.972116246510364
31.951811325240488
31.932358368550798
31.913870043831384
31.89643538823633
31.88012187020281
31.86497854406975
31.851038382444386
31.838320018184422
62.371713651611486
61.81500069555538
61.26507812875465
60.72180369938807
60.184962002047406
59.65426949114213
59.129364241558
58.60978702104853
58.09495511880459
57.58412771520591
57.076362703976876
56.57049226442023
56.06525262380708
55.55963582210474
54.932372658511326
54.30607696601007
53.680503351926774
53.055269280425925
52.429797263184554
51.803235152018274
51.174296553049764
50.541165323032
49.90160765205154
38.05156648684575
34.373997959935174
33.188700949763344
32.81107599771679
32.68742342479422
32.63618389892423
32.58253788579617
32.44715947061543
32.01449522579386
31.992797807244106
31.97186477149433
31.951858339139008
31.932903008795172
31.91508845554499
31.898480341208455
31.88312437495481
31.869050581923094
31.856275662588637
62.38517338231746
61.828475287954426
61.27858276928741
60.73537079391753
60.19864303702741
59.668135834277045
59.143511081914234
58.624341781831674
58.110092223771694
57.60009364853192
57.09351940503588
56.58938763392511
56.08666845919032
55.58446590382731
54.961999213377574
54.340580360060095
53.719967702031205
53.099822220288694
52.479654007153336
51.858728316541544
51.23587320998689
50.60866597291138
49.97353284087989
37.89833560084833
34.38721275899709
33.20213243855844
32.83635742995612
32.713875632435816
32.66402824355277
32.61039760295277
32.48178725172776
32.037507343275045
32.0149305650705
31.993199416148872
31.972520906545984
31.9530072480558
31.934747227542715
31.917797902365038
31.90219777455862
31.88797177493138
31.8751336027233
62.398792247609784
61.84211540807592
61.2922703968059
60.749147233137194
60.21256818138974
59.682290509642215
59.15800185507246
58.63931004565739
58.125729579153564
57.61666737916113
57.111414229663
56.609162174850105
56.10907892460069
55.61038674837364
54.992888540917846
54.37657391260954
53.76124483879835
53.14665201891158
52.53246761592541
51.918235457042556
51.30323946373853
50.68638852041336
50.06019014164182
37.71187880719544
34.4037362991273
33.21452218127545
32.863924411777944
32.742315185064264
32.69426908152884
32.64045497045087
32.520032689459384
32.06218949824057
32.03836692032769
32.01571117156993
31.994226157093426
31.974072086500467
31.95531032242816
31.937980477251593
31.922109701180432
31.907715866759183
31.894808764647994
62.41256829742826
61.85591817193982
61.30613599982158
60.76312556446953
60.22672732706094
59.6967201582771
59.17281881147007
58.654667755561036
58.141833662635754
57.633800662231415
57.12997587857654
56.62971529666538
56.132366754642455
55.637283891945806
55.024914477117186
54.4138946044329
53.80408984681249
53.19536373849018
52.58758921510767
51.9806762674307
51.374633098085546
50.76968956912581
34.48445635133542
34.48445635133542
34.48445635133542
34.48445635133542
34.48445635133542
34.48445635133542
34.48445635133542
34.48445635133542
34.48445635133542
34.48445635133542
32.06311711757446
32.03920068381835
32.01681541177568
31.995963856660943
31.976660702419164
31.95892174325502
31.942760551275114
31.928186995358914
31.915206548193314
62.696221696979684
62.14058865846138
61.59344061368777
61.05483046721888
60.52484628302254
60.00361972732118
59.49134000887821
58.98827441295533
58.49479681145843
58.01142588792996
57.53887484790967
57.07811471772891
56.63045812960787
56.19768462545257
55.67276878954975
55.151843260562615
54.635395789836075
54.123942246172305
53.61803058685115
53.11824094239379
52.625177082439734
52.139441192349615
34.48445635133542
34.48445635133542
34.48445635133542
34.48445635133542
34.48445635133542
34.48445635133542
34.48445635133542
34.48445635133542
34.48445635133542
34.48445635133542
32.5339031812303
32.49480323200009
32.45947349129679
32.42781385283651
32.399738178875744
32.375175997054015
32.35407235692699
32.33638742318988
32.322096088467134
62.96870138760688
62.413784821187726
61.86833328041888
61.332386343672404
60.806004459826134
60.289267855009285
59.78227402775705
59.285132954950654
58.79795866240111
58.32085515461097
57.853893875982294
57.397078622951945
56.95029083007201
56.51320156654298
55.97793498748302
55.44499544776992
54.91421949357055
54.385423297334164
53.85839718184887
53.332900711502646
52.80865955279388
52.285366260311974
34.48445635133542
34.48445635133542
34.48445635133542
34.48445635133542
34.48445635133542
34.48445635133542
34.48445635133542
34.48445635133542
34.48445635133542
34.48445635133542
32.65702995825772
32.62668854521297
32.598567225255785
32.572722543443625
32.54920035360088
32.52803631450832
32.50925668536866
32.492879008648956
32.47891261591117
63.18725044577031
62.63252905122401
62.08729257329776
61.551549701239715
61.025308833783654
60.50857686357583
60.00135764227892
59.503650323211104
59.015447969732655
58.53673713796126
58.06749963591932
57.607718477698256
57.15739167951374
56.716560763869886
56.17686508230747
55.6397504421175
55.10525661984782
54.573431608707594
54.044334476714816
53.51803832440718
52.99463307876711
52.474227594610895
34.48445635133542
34.48445635133542
34.48445635133542
34.48445635133542
34.48445635133542
34.48445635133542
34.48445635133542
34.48445635133542
34.48445635133542
34.48445635133542
32.702871891872604
32.67219957305843
32.64395738465379
32.618124098045385
32.59468256692731
32.57361919802493
32.554923430949174
32.538587327631205
32.52460528025252
63.345748306513755
62.791069112351636
62.245696563800436
61.709635559906275
61.1828892431926
60.665459142816545
60.157345404208705
59.658547122343876
59.169062757150726
58.68889052122768
58.21802846124365
57.75647363149469
57.30421908706349
56.86124606807188
56.31867366880391
55.778592279854095
55.24098876883416
54.70584703974612
54.17314688571076
53.64286271645799
53.11496220238933
52.58940494780771
34.48445635133542
34.48445635133542
34.48445635133542
34.48445635133542
34.48445635133542
34.48445635133542
34.48445635133542
34.48445635133542
34.48445635133542
34.48445635133542
32.71640540588595
32.68636486182278
32.658612561800034
32.63315336893995
32.60999047878994
32.58912569089602
32.57055964567516
32.55429200487528
32.540321577335334
63.45181480138341
62.897155886193964
62.35166939340503
61.81536046549413
61.288232626911494
60.7702877630372
60.26152607482939
59.76194599295095
59.27154403857222
58.79031463451851
58.31824991284623
57.855339663349206
57.40157179635085
56.95693419182483
56.41220844459323
55.86997083368594
55.330221427993564
54.792961155554565
54.25819221376532
53.725918548090036
53.196146399792944
52.668884905450554
34.48445635133542
34.48445635133542
34.48445635133542
34.48445635133542
34.48445635133542
34.48445635133542
34.48445635133542
34.48445635133542
34.48445635133542
34.48445635133542
32.72102577994577
32.69101435409421
32.6633051805486
32.637894144074885
32.61477763004178
32.593952409286665
32.57541554367171
32.55916431591179
32.54519618149457
63.51260387572851
62.95795558274133
62.41240070240053
61.87594428677953
61.34858976045277
60.83033891926405
60.32119193427622
59.82114736732377
59.33020220620199
58.848351926707046
58.37559058106111
57.911910886470785
57.45730421508395
57.01176020915887
56.465862739293854
55.92244330873482
55.38149914634771
54.84302712603708
54.307023621658864
53.77348432936117
53.24240405219962
52.71377644603578
34.48445635133542
34.48445635133542
34.48445635133542
34.48445635133542
34.48445635133542
34.48445635133542
34.48445635133542
34.48445635133542
34.48445635133542
34.48445635133542
32.7224169184753
32.69245575452511
32.664784716665196
32.6394023256829
32.61630688243299
32.5954965148563
32.576969214898504
32.56072286532041
32.54675525777227
63.53239664394056
62.97775165331057
62.43217405841736
61.895668946324754
61.36823982076508
60.84988860824253
60.34061566515327
59.840419782806855
59.34929818554531
58.86724651591922
58.39425880235223
57.930327415276864
57.475443054368
57.02959490910323
56.483302568571105
55.93948594037705
55.39814311954443
54.85927229885284
54.32287185304383
53.78894044489967
53.257477158073634
52.728481659982094
34.48445635133542
34.48445635133542
34.48445635133542
34.48445635133542
34.48445635133542
34.48445635133542
34.48445635133542
34.48445635133542
34.48445635133542
34.48445635133542
32.72274210300042
32.69278290504022
32.66511549769147
32.63973737304917
32.61664610595167
32.59583932457833
32.57731468793952
32.56106986978289
32.54710254788021
63.51260387572889
62.95795558274172
62.4124007024009
61.87594428677986
61.34858976045305
60.83033891926429
60.32119193427645
59.82114736732402
59.33020220620227
58.84835192670734
58.375590581061395
57.91191088647109
57.45730421508427
57.01176020915919
56.465862739294174
55.922443308735126
55.381499146348
54.843027126037335
54.30702362165913
53.77348432936143
53.24240405219989
52.71377644603607
34.48445635133542
34.48445635133542
34.48445635133542
34.48445635133542
34.48445635133542
34.48445635133542
34.48445635133542
34.48445635133542
34.48445635133542
34.48445635133542
32.72241691847557
32.692455754525405
32.66478471666549
32.63940232568319
32.616306882433285
32.59549651485662
32.576969214898824
32.56072286532073
32.54675525777258
63.45181480138397
62.89715588619454
62.35166939340562
61.8153604654947
61.288232626912055
60.770287763037736
60.2615260748299
59.761945992951446
59.27154403857268
58.79031463451895
58.31824991284666
57.85533966334965
57.4015717963513
56.956934191825304
56.41220844459371
55.86997083368641
55.33022142799403
54.79296115555503
54.25819221376578
53.72591854809052
53.19614639979342
52.66888490545101
34.48445635133542
34.48445635133542
34.48445635133542
34.48445635133542
34.48445635133542
34.48445635133542
34.48445635133542
34.48445635133542
34.48445635133542
34.48445635133542
32.72102577994649
32.69101435409494
32.66330518054935
32.63789414407566
32.61477763004256
32.59395240928744
32.57541554367249
32.55916431591258
32.545196181495356
63.34574830651414
62.79106911235199
62.24569656380077
61.70963555990659
61.18288924319291
60.66545914281686
60.157345404208996
59.658547122344146
59.169062757150996
58.688890521227954
58.21802846124395
57.756473631495005
57.30421908706384
56.86124606807222
56.31867366880428
55.77859227985447
55.24098876883452
54.70584703974643
54.173146885711
53.64286271645818
53.1149622023895
52.58940494780786
34.48445635133542
34.48445635133542
34.48445635133542
34.48445635133542
34.48445635133542
34.48445635133542
34.48445635133542
34.48445635133542
34.48445635133542
34.48445635133542
32.71640540588785
32.68636486182473
32.65861256180201
32.633153368941926
32.60999047879191
32.58912569089796
32.57055964567706
32.55429200487712
32.54032157733716
63.18725044577054
62.63252905122425
62.08729257329804
61.551549701240035
61.02530883378397
60.50857686357614
60.001357642279245
59.503650323211424
59.015447969732996
58.53673713796159
58.06749963591964
57.607718477698555
57.157391679514
56.71656076387014
56.17686508230773
55.63975044211772
55.105256619848056
54.57343160870787
54.04433447671515
53.51803832440754
52.99463307876747
52.474227594611236
34.48445635133542
34.48445635133542
34.48445635133542
34.48445635133542
34.48445635133542
34.48445635133542
34.48445635133542
34.48445635133542
34.48445635133542
34.48445635133542
32.70287189187412
32.67219957305997
32.64395738465536
32.61812409804699
32.594682566928945
32.573619198026584
32.55492343095085
32.538587327632925
32.52460528025425
62.968701387606714
62.41378482118756
61.86833328041868
61.33238634367217
60.80600445982589
60.289267855009065
59.78227402775681
59.28513295495043
58.79795866240088
58.32085515461078
57.85389387598217
57.39707862295186
56.95029083007192
56.51320156654291
55.977934987482975
55.444995447769884
54.91421949357051
54.38542329733414
53.858397181848815
53.33290071150257
52.80865955279378
52.28536626031183
34.48445635133542
34.48445635133542
34.48445635133542
34.48445635133542
34.48445635133542
34.48445635133542
34.48445635133542
34.48445635133542
34.48445635133542
34.48445635133542
32.65702995825886
32.62668854521412
32.598567225256936
32.57272254344477
32.54920035360204
32.52803631450948
32.509256685369806
32.49287900865008
32.47891261591229
62.69622169697917
62.140588658460885
61.593440613687285
61.05483046721841
60.52484628302207
60.00361972732074
59.49134000887781
58.988274412954915
58.49479681145804
58.011425887929605
57.53887484790936
57.078114717728674
56.63045812960765
56.19768462545238
55.672768789549586
55.151843260562465
54.63539578983594
54.12394224617215
53.618030586850985
53.11824094239361
52.62517708243955
52.13944119234944
34.48445635133542
34.48445635133542
34.48445635133542
34.48445635133542
34.48445635133542
34.48445635133542
34.48445635133542
34.48445635133542
34.48445635133542
34.48445635133542
32.533903181231054
32.49480323200086
32.4594734912976
32.42781385283734
32.399738178876575
32.375175997054846
32.35407235692783
32.336387423190736
32.32209608846798
62.412568297427605
61.855918171939166
61.30613599982097
60.76312556446901
60.22672732706055
59.69672015827677
59.17281881146978
58.65466775556078
58.14183366263551
57.63380066223114
57.129975878576225
56.62971529666506
56.132366754642156
55.63728389194556
55.02491447711704
54.41389460443282
53.80408984681247
53.19536373849026
52.58758921510781
51.98067626743089
51.374633098085766
50.76968956912602
34.48445635133542
34.48445635133542
34.48445635133542
34.48445635133542
34.48445635133542
34.48445635133542
34.48445635133542
34.48445635133542
34.48445635133542
34.48445635133542
32.06311711757532
32.03920068381923
32.01681541177656
31.99596385666184
31.976660702420073
31.95892174325594
31.942760551276027
31.928186995359805
31.91520654819421
62.39879224760911
61.84211540807521
61.292270396805336
60.74914723313662
60.21256818138937
59.682290509641874
59.158001855072115
58.63931004565713
58.12572957915332
57.616667379160816
57.111414229662685
56.60916217484981
56.10907892460037
55.61038674837347
54.9928885409177
54.376573912609466
53.76124483879836
53.146652018911645
52.532467615925555
51.918235457042755
51.30323946373873
50.686388520413594
50.06019014164203
37.71187880719637
34.403736299127246
33.214522181275356
32.86392441177844
32.74231518506459
32.694269081529136
32.640454970451195
32.520032689458915
32.06218949824138
32.03836692032855
32.01571117157079
31.994226157094293
31.974072086501348
31.95531032242905
31.937980477252466
31.922109701181313
31.907715866760064
31.894808764648864
62.385173382316694
61.82847528795374
61.27858276928684
60.735370793917056
60.198643037027
59.66813583427673
59.1435110819139
58.62434178183139
58.110092223771396
57.600093648531605
57.093519405035536
56.58938763392482
56.08666845919005
55.584465903827116
54.961999213377446
54.34058036006004
53.71996770203121
53.09982222028874
52.47965400715349
51.858728316541715
51.23587320998711
50.6086659729116
49.97353284088013
37.89833560084927
34.387212758997045
33.20213243855841
32.836357429956664
32.71387563243615
32.66402824355308
32.610397602953135
32.48178725172729
32.03750734327586
32.01493056507133
31.99319941614974
31.972520906546826
31.95300724805668
31.934747227543596
31.917797902365898
31.90219777455949
31.887971774932236
31.87513360272414
62.37171365161067
61.81500069555466
61.26507812875411
60.72180369938757
60.184962002047016
59.65426949114178
59.12936424155767
58.60978702104817
58.09495511880429
57.58412771520556
57.076362703976564
56.57049226441992
56.06525262380679
55.55963582210454
54.93237265851119
54.30607696601002
53.680503351926774
53.055269280426
52.42979726318472
51.803235152018495
51.17429655304999
50.54116532303225
49.901607652051794
38.05156648684674
34.373997959935174
33.18870094976337