# vtk DataFile Version 2.0
Niestacjonarne zagadnienie cieplne - ogrzewanie wody w garnku stalowym
ASCII
DATASET UNSTRUCTURED_GRID
POINTS 1353 float
0.0 0.0 0.0
0.0 0.0015384615384615385 0.0
0.0 0.003076923076923077 0.0
0.0 0.004615384615384615 0.0
0.0 0.006153846153846154 0.0
0.0 0.007692307692307693 0.0
0.0 0.00923076923076923 0.0
0.0 0.010769230769230769 0.0
0.0 0.012307692307692308 0.0
0.0 0.013846153846153847 0.0
0.0 0.015384615384615385 0.0
0.0 0.016923076923076923 0.0
0.0 0.01846153846153846 0.0
0.0 0.02 0.0
0.0 0.020555555555555556 0.0
0.0 0.021111111111111112 0.0
0.0 0.021666666666666667 0.0
0.0 0.022222222222222223 0.0
0.0 0.02277777777777778 0.0
0.0 0.023333333333333334 0.0
0.0 0.02388888888888889 0.0
0.0 0.024444444444444446 0.0
0.0 0.025 0.0
0.0 0.036111111111111115 0.0
0.0 0.04722222222222222 0.0
0.0 0.058333333333333334 0.0
0.0 0.06944444444444445 0.0
0.0 0.08055555555555556 0.0
0.0 0.09166666666666667 0.0
0.0 0.10277777777777777 0.0
0.0 0.1138888888888889 0.0
0.0 0.125 0.0
0.0 0.12555555555555556 0.0
0.0 0.12611111111111112 0.0
0.0 0.12666666666666668 0.0
0.0 0.1272222222222222 0.0
0.0 0.12777777777777777 0.0
0.0 0.12833333333333333 0.0
0.0 0.1288888888888889 0.0
0.0 0.12944444444444445 0.0
0.0 0.13 0.0
5.555555555555556E-4 0.0 0.0
5.555555555555556E-4 0.0015384615384615385 0.0
5.555555555555556E-4 0.003076923076923077 0.0
5.555555555555556E-4 0.004615384615384615 0.0
5.555555555555556E-4 0.006153846153846154 0.0
5.555555555555556E-4 0.007692307692307693 0.0
5.555555555555556E-4 0.00923076923076923 0.0
5.555555555555556E-4 0.010769230769230769 0.0
5.555555555555556E-4 0.012307692307692308 0.0
5.555555555555556E-4 0.013846153846153847 0.0
5.555555555555556E-4 0.015384615384615385 0.0
5.555555555555556E-4 0.016923076923076923 0.0
5.555555555555556E-4 0.01846153846153846 0.0
5.555555555555556E-4 0.02 0.0
5.555555555555556E-4 0.020555555555555556 0.0
5.555555555555556E-4 0.021111111111111112 0.0
5.555555555555556E-4 0.021666666666666667 0.0
5.555555555555556E-4 0.022222222222222223 0.0
5.555555555555556E-4 0.02277777777777778 0.0
5.555555555555556E-4 0.023333333333333334 0.0
5.555555555555556E-4 0.02388888888888889 0.0
5.555555555555556E-4 0.024444444444444446 0.0
5.555555555555556E-4 0.025 0.0
5.555555555555556E-4 0.036111111111111115 0.0
5.555555555555556E-4 0.04722222222222222 0.0
5.555555555555556E-4 0.058333333333333334 0.0
5.555555555555556E-4 0.06944444444444445 0.0
5.555555555555556E-4 0.08055555555555556 0.0
5.555555555555556E-4 0.09166666666666667 0.0
5.555555555555556E-4 0.10277777777777777 0.0
5.555555555555556E-4 0.1138888888888889 0.0
5.555555555555556E-4 0.125 0.0
5.555555555555556E-4 0.12555555555555556 0.0
5.555555555555556E-4 0.12611111111111112 0.0
5.555555555555556E-4 0.12666666666666668 0.0
5.555555555555556E-4 0.1272222222222222 0.0
5.555555555555556E-4 0.12777777777777777 0.0
5.555555555555556E-4 0.12833333333333333 0.0
5.555555555555556E-4 0.1288888888888889 0.0
5.555555555555556E-4 0.12944444444444445 0.0
5.555555555555556E-4 0.13 0.0
0.0011111111111111111 0.0 0.0
0.0011111111111111111 0.0015384615384615385 0.0
0.0011111111111111111 0.003076923076923077 0.0
0.0011111111111111111 0.004615384615384615 0.0
0.0011111111111111111 0.006153846153846154 0.0
0.0011111111111111111 0.007692307692307693 0.0
0.0011111111111111111 0.00923076923076923 0.0
0.0011111111111111111 0.010769230769230769 0.0
0.0011111111111111111 0.012307692307692308 0.0
0.0011111111111111111 0.013846153846153847 0.0
0.0011111111111111111 0.015384615384615385 0.0
0.0011111111111111111 0.016923076923076923 0.0
0.0011111111111111111 0.01846153846153846 0.0
0.0011111111111111111 0.02 0.0
0.0011111111111111111 0.020555555555555556 0.0
0.0011111111111111111 0.021111111111111112 0.0
0.0011111111111111111 0.021666666666666667 0.0
0.0011111111111111111 0.022222222222222223 0.0
0.0011111111111111111 0.02277777777777778 0.0
0.0011111111111111111 0.023333333333333334 0.0
0.0011111111111111111 0.02388888888888889 0.0
0.0011111111111111111 0.024444444444444446 0.0
0.0011111111111111111 0.025 0.0
0.0011111111111111111 0.036111111111111115 0.0
0.0011111111111111111 0.04722222222222222 0.0
0.0011111111111111111 0.058333333333333334 0.0
0.0011111111111111111 0.06944444444444445 0.0
0.0011111111111111111 0.08055555555555556 0.0
0.0011111111111111111 0.09166666666666667 0.0
0.0011111111111111111 0.10277777777777777 0.0
0.0011111111111111111 0.1138888888888889 0.0
0.0011111111111111111 0.125 0.0
0.0011111111111111111 0.12555555555555556 0.0
0.0011111111111111111 0.12611111111111112 0.0
0.0011111111111111111 0.12666666666666668 0.0
0.0011111111111111111 0.1272222222222222 0.0
0.0011111111111111111 0.12777777777777777 0.0
0.0011111111111111111 0.12833333333333333 0.0
0.0011111111111111111 0.1288888888888889 0.0
0.0011111111111111111 0.12944444444444445 0.0
0.0011111111111111111 0.13 0.0
0.0016666666666666666 0.0 0.0
0.0016666666666666666 0.0015384615384615385 0.0
0.0016666666666666666 0.003076923076923077 0.0
0.0016666666666666666 0.004615384615384615 0.0
0.0016666666666666666 0.006153846153846154 0.0
0.0016666666666666666 0.007692307692307693 0.0
0.0016666666666666666 0.00923076923076923 0.0
0.0016666666666666666 0.010769230769230769 0.0
0.0016666666666666666 0.012307692307692308 0.0
0.0016666666666666666 0.013846153846153847 0.0
0.0016666666666666666 0.015384615384615385 0.0
0.0016666666666666666 0.016923076923076923 0.0
0.0016666666666666666 0.01846153846153846 0.0
0.0016666666666666666 0.02 0.0
0.0016666666666666666 0.020555555555555556 0.0
0.0016666666666666666 0.021111111111111112 0.0
0.0016666666666666666 0.021666666666666667 0.0
0.0016666666666666666 0.022222222222222223 0.0
0.0016666666666666666 0.02277777777777778 0.0
0.0016666666666666666 0.023333333333333334 0.0
0.0016666666666666666 0.02388888888888889 0.0
0.0016666666666666666 0.024444444444444446 0.0
0.0016666666666666666 0.025 0.0
0.0016666666666666666 0.036111111111111115 0.0
0.0016666666666666666 0.04722222222222222 0.0
0.0016666666666666666 0.058333333333333334 0.0
0.0016666666666666666 0.06944444444444445 0.0
0.0016666666666666666 0.08055555555555556 0.0
0.0016666666666666666 0.09166666666666667 0.0
0.0016666666666666666 0.10277777777777777 0.0
0.0016666666666666666 0.1138888888888889 0.0
0.0016666666666666666 0.125 0.0
0.0016666666666666666 0.12555555555555556 0.0
0.0016666666666666666 0.12611111111111112 0.0
0.0016666666666666666 0.12666666666666668 0.0
0.0016666666666666666 0.1272222222222222 0.0
0.0016666666666666666 0.12777777777777777 0.0
0.0016666666666666666 0.12833333333333333 0.0
0.0016666666666666666 0.1288888888888889 0.0
0.0016666666666666666 0.12944444444444445 0.0
0.0016666666666666666 0.13 0.0
0.0022222222222222222 0.0 0.0
0.0022222222222222222 0.0015384615384615385 0.0
0.0022222222222222222 0.003076923076923077 0.0
0.0022222222222222222 0.004615384615384615 0.0
0.0022222222222222222 0.006153846153846154 0.0
0.0022222222222222222 0.007692307692307693 0.0
0.0022222222222222222 0.00923076923076923 0.0
0.0022222222222222222 0.010769230769230769 0.0
0.0022222222222222222 0.012307692307692308 0.0
0.0022222222222222222 0.013846153846153847 0.0
0.0022222222222222222 0.015384615384615385 0.0
0.0022222222222222222 0.016923076923076923 0.0
0.0022222222222222222 0.01846153846153846 0.0
0.0022222222222222222 0.02 0.0
0.0022222222222222222 0.020555555555555556 0.0
0.0022222222222222222 0.021111111111111112 0.0
0.0022222222222222222 0.021666666666666667 0.0
0.0022222222222222222 0.022222222222222223 0.0
0.0022222222222222222 0.02277777777777778 0.0
0.0022222222222222222 0.023333333333333334 0.0
0.0022222222222222222 0.02388888888888889 0.0
0.0022222222222222222 0.024444444444444446 0.0
0.0022222222222222222 0.025 0.0
0.0022222222222222222 0.036111111111111115 0.0
0.0022222222222222222 0.04722222222222222 0.0
0.0022222222222222222 0.058333333333333334 0.0
0.0022222222222222222 0.06944444444444445 0.0
0.0022222222222222222 0.08055555555555556 0.0
0.0022222222222222222 0.09166666666666667 0.0
0.0022222222222222222 0.10277777777777777 0.0
0.0022222222222222222 0.1138888888888889 0.0
0.0022222222222222222 0.125 0.0
0.0022222222222222222 0.12555555555555556 0.0
0.0022222222222222222 0.12611111111111112 0.0
0.0022222222222222222 0.12666666666666668 0.0
0.0022222222222222222 0.1272222222222222 0.0
0.0022222222222222222 0.12777777777777777 0.0
0.0022222222222222222 0.12833333333333333 0.0
0.0022222222222222222 0.1288888888888889 0.0
0.0022222222222222222 0.12944444444444445 0.0
0.0022222222222222222 0.13 0.0
0.002777777777777778 0.0 0.0
0.002777777777777778 0.0015384615384615385 0.0
0.002777777777777778 0.003076923076923077 0.0
0.002777777777777778 0.004615384615384615 0.0
0.002777777777777778 0.006153846153846154 0.0
0.002777777777777778 0.007692307692307693 0.0
0.002777777777777778 0.00923076923076923 0.0
0.002777777777777778 0.010769230769230769 0.0
0.002777777777777778 0.012307692307692308 0.0
0.002777777777777778 0.013846153846153847 0.0
0.002777777777777778 0.015384615384615385 0.0
0.002777777777777778 0.016923076923076923 0.0
0.002777777777777778 0.01846153846153846 0.0
0.002777777777777778 0.02 0.0
0.002777777777777778 0.020555555555555556 0.0
0.002777777777777778 0.021111111111111112 0.0
0.002777777777777778 0.021666666666666667 0.0
0.002777777777777778 0.022222222222222223 0.0
0.002777777777777778 0.02277777777777778 0.0
0.002777777777777778 0.023333333333333334 0.0
0.002777777777777778 0.02388888888888889 0.0
0.002777777777777778 0.024444444444444446 0.0
0.002777777777777778 0.025 0.0
0.002777777777777778 0.036111111111111115 0.0
0.002777777777777778 0.04722222222222222 0.0
0.002777777777777778 0.058333333333333334 0.0
0.002777777777777778 0.06944444444444445 0.0
0.002777777777777778 0.08055555555555556 0.0
0.002777777777777778 0.09166666666666667 0.0
0.002777777777777778 0.10277777777777777 0.0
0.002777777777777778 0.1138888888888889 0.0
0.002777777777777778 0.125 0.0
0.002777777777777778 0.12555555555555556 0.0
0.002777777777777778 0.12611111111111112 0.0
[...]
POINT_DATA 1353
SCALARS Temperatura float 1
LOOKUP_TABLE default
123.86619944735503
123.3589932022746
122.85578363484458
122.3561687693354
121.85975930399344
121.3660662074564
120.87445414970381
120.38407978083072
119.89380643613646
119.40203613479292
118.90653244288488
118.40339733145265
117.88794645958623
117.33190167359328
116.59778843677849
115.9162074083951
115.25099531492415
114.59597795062355
113.94736731920499
113.30276828949854
112.66047245912182
112.01924446608282
111.37824717995073
100.23611478869299
96.19633386880058
95.00679377002972
94.60327674952825
94.46506146091262
94.37578003700268
94.21616047434352
93.70776960056821
92.32535223672666
92.2476967483629
92.17043576990041
92.09362892930244
92.01731768795501
91.94153075452957
91.86628819929405
91.79160408979654
91.71748786769636
91.64394488670573
123.8971430629814
123.38983364714412
122.88649463496041
122.38675654445197
121.89023076826001
121.39643173712727
120.90472730204876
120.41428046313199
119.9239585251704
119.43220031600703
118.93670238834261
118.43410182759773
117.9177023379106
117.37322547499375
116.68499959400431
116.00743021245343
115.3444537466295
114.69040609703275
114.04226052864975
113.39782835826546
112.75548492638063
112.11401983299373
111.47259560618353
100.30598433595974
96.27310911952604
95.08328601371721
94.680050794554
94.54189093739762
94.45265820544189
94.29301044308771
93.78549581827755
92.39986749860286
92.32209098833334
92.24472156222996
92.16781569045457
92.0914120508697
92.01553730113132
91.94021026316753
91.86544441181007
91.79124900717974
91.71762939868758
123.92818065316877
123.42082778472033
122.91740444418778
122.41759259258468
121.92101326478779
121.42718967550115
120.93550063992312
120.44512476146912
119.95495778418639
119.46347702999205
118.96849915326898
118.46679520835505
117.95237055104586
117.41931195690404
116.75106437015492
116.08750348541074
115.43086386081944
114.78067900601884
114.13508368227929
113.49240573528125
112.85121593954554
112.21035632265055
111.56897386705533
100.35133265715082
96.34769668216437
95.1593520945879
94.75781876339309
94.62009737507498
94.53119935535346
94.37178019756247
93.86796450196944
92.47549394136784
92.39751638368361
92.31998301237822
92.24294003563949
92.16641732959258
92.09043530370813
92.01500919015531
91.94015094069856
91.86586950605944
91.79217037577226
123.95934110246247
123.45197615363682
122.94851174420212
122.44867447895616
121.95210323669919
121.45833521630482
120.96676702594766
120.47660370270721
119.98678396437005
119.49585852541416
119.00180180459716
118.50162572266912
117.99083650050306
117.46716477029234
116.81269044920704
116.1606282343517
115.5123354598658
114.86791182744624
114.22655346847378
113.58706074859965
112.94819442693398
112.3088134021099
111.66798897681842
100.37164482378333
96.42034944742637
95.23492345263058
94.83660653957136
94.69967399256998
94.61141508684335
94.45244080507699
93.95523642642056
92.55218517658652
92.47393716402509
92.39619534532292
92.31898636224483
92.24232415979482
92.16621873270981
92.09068014728126
92.01571888077417
91.94134426133601
91.86756256183722
123.99063884525734
123.48328154623972
122.97981398394131
122.4799980712904
121.983494777289
121.48986022768123
120.99851515204425
120.50870042008444
120.0194120261408
119.52930156856519
119.03652628557074
118.53849585704171
118.032049238403
117.51637828320612
116.87296159029324
116.23095274046013
115.59109507655738
114.95349008694299
114.31763428923506
113.6826025346475
113.04723608245894
112.41030495559723
111.77067718893662
100.36606233646268
96.4915004130007
95.30988137661379
94.91645852954522
94.78060765253105
94.69332438718371
94.53494147905171
94.04741170008634
92.62985955031881
92.55129278290681
92.47331906982416
92.39593171951054
92.3191197936773
92.2428793461947
92.16721568529694
92.09213990987081
92.01766389901132
91.94379615594002
124.02208087590873
123.51474548129727
123.01130767755262
122.51155747744335
122.01517967200971
121.52175348750328
121.03072937716085
120.54139210342284
120.05280765936254
119.56374724715798
119.0725800488197
118.57717365461336
118.07534920529962
117.56683554980583
116.9331332270636
116.30035377448955
115.6688681406196
115.0386641834353
114.40930200672312
113.77993325822936
113.14934995481933
112.51607359352668
111.87855057229045
100.33335553522083
96.56177838040213
95.38404961975621
94.99744069694303
94.86287745591287
94.77695485654104
94.61920762470554
94.14463302400534
92.7083940916496
92.62949854047825
92.55130556069686
92.47375314650881
92.39679419261714
92.3204103518555
92.24460712530349
92.16940212944168
92.09481397597051
92.02085578745384
124.05366956193471
123.5463673453057
123.04298810553003
122.54334509412907
122.04714747793948
121.55400084583236
121.06339008701256
120.5746505498754
120.08692809881873
119.59912678983179
119.1098482412617
118.61740580237968
118.12030743351688
117.61845556101868
116.99377372806808
116.36980127355821
115.74669116598695
115.12434367287133
114.50233604692427
113.87985924658307
113.25559349390932
112.62764445828303
111.99368048252596
100.27187939184613
96.63203182453917
95.45718333847901
95.079645102708
94.9464526342085
94.86234454177045
94.70513789375376
94.24709081243432
92.7876142837125
92.70844898611819
92.6301104697963
92.55244208871795
92.4753504268807
92.39881062136541
92.3228453464289
92.24748906460393
92.17277316966
92.09871847759902
124.08540394401864
123.57814430710121
123.07484907567127
122.5753516369014
122.07938563290465
121.58658543409011
121.09647410906045
120.60844274402082
120.12172392442139
119.6353629508857
119.14820121670829
118.65895533159662
118.16661906325763
117.67114534632591
117.05513384377237
116.43978024945257
115.82512541981994
115.21104234756409
114.59717021245538
113.98282403938754
113.36681605121169
112.74669898493116
112.11884475380158
100.1795045484829
96.70336360283659
95.52895340378542
95.1631963158248
95.03128956972284
94.94954453222233
94.7925999350543
94.35503107655876
92.86727672887147
92.78803182041374
92.70972104490768
92.632039104248
92.55481516089141
92.47808697391544
92.4019194035127
92.32637685128974
92.25150995757649
92.17735020138872
124.11728044013887
123.6100714483172
123.10688281798474
122.60756617109232
122.11187958638664
121.61948791280793
121.12995514430733
120.64273163072046
120.15714061383945
119.67237200525116
119.18750339144788
118.70160834013754
118.21404495083071
117.72479274480067
117.11728605761462
116.51048706236885
115.90439534509024
115.2989147653719
114.69381530937666
114.0886800825518
113.48277636024606
112.87490693199295
112.25778525633828
100.05350957083361
96.77718098979139
95.59892454579361
95.24826025886875
95.11732770601564
95.03862247731446
94.88142462834577
94.4687664757
92.94704386833982
92.86806793327898
92.79033602050363
92.71265265115316
92.63524159602777
92.55825030888766
92.48181121549914
92.40602888381454
92.33097750370602
92.25670088888886
124.14929329257741
123.64214194691877
123.13907997917673
122.63997616296295
122.14461294784999
121.65268674146259
121.16380422832658
120.67747694748012
120.19311997229299
119.71006630793211
119.22761902716304
118.74517061420994
118.26238031745726
117.7792681206372
117.18019573072179
116.58193887376254
115.98449536401468
115.38783392114212
114.79189629784952
114.196617755702
113.6019824378319
113.00814326125766
98.74119491871889
98.74119491871889
98.74119491871889
98.74119491871889
98.74119491871889
98.74119491871889
98.74119491871889
98.74119491871889
98.74119491871889
98.74119491871889
92.9498042524312
92.87228623433137
92.79445000464233
92.71669289410758
92.6393024129346
92.56248537832008
92.48638783300152
92.41110694843633
92.33669813082176
124.77285030156634
124.26742005188626
123.7685646240113
123.27636449541122
122.79095779783218
122.3125535646241
121.84145279645163
121.3780786744547
120.92301719609061
120.47706886944373
120.04130998380515
119.61716000679355
119.20646148149982
118.81161590503108
118.33455673176478
117.86139144248307
117.3927644348952
116.92936243312211
116.47192266730596
116.02123701529004
115.5781476663592
115.14352610310323
98.74119491871889
98.74119491871889
98.74119491871889
98.74119491871889
98.74119491871889
98.74119491871889
98.74119491871889
98.74119491871889
98.74119491871889
98.74119491871889
94.50707248656089
94.39081271959759
94.28080336262676
94.17667481765966
94.07813650899715
93.98496378335871
93.89698855971452
93.81409319036307
93.7362065277935
125.33830688656327
124.83401004381454
124.33761518245547
123.84917667235133
123.36877990770735
122.89653915905174
122.43259318700952
121.97709732733462
121.53021020120545
121.092072595058
120.6627755902524
120.2423142571085
119.83051888441022
119.42694269523142
118.9319037979038
118.43845265115316
117.94636926757661
117.45540504889715
116.96527468791791
116.47564845923866
115.9861459666623
115.49633347872508
98.74119491871889
98.74119491871889
98.74119491871889
98.74119491871889
98.74119491871889
98.74119491871889
98.74119491871889
98.74119491871889
98.74119491871889
98.74119491871889
94.93502576693376
94.84562335971738
94.75760074344224
94.67115181517677
94.5864282669675
94.50354622064158
94.42259112701731
94.34362118072116
94.26666959392772
125.78507911887564
125.28109820304711
124.78489900319
124.296488724185
123.81587385363379
123.3430584299022
122.8780418813679
122.42081675865812
121.97136693860939
121.52966725934785
121.09568605088126
120.6693928447804
120.25077569965975
119.83987784622221
119.33587572736705
118.83376474110196
118.33359594444367
117.83543171552398
117.33934978294721
116.84544750308136
116.35384618711684
115.86469498918585
98.74119491871889
98.74119491871889
98.74119491871889
98.74119491871889
98.74119491871889
98.74119491871889
98.74119491871889
98.74119491871889
98.74119491871889
98.74119491871889
95.09250725172454
95.0027508153091
94.91494414930085
94.82902573215127
94.74494877598688
94.66267820717293
94.58218841699613
94.50346166456217
94.42648700406276
126.10953073049237
125.60562888861185
125.10913005527617
124.62003603447721
124.13834589089642
123.66405615211359
123.19716112615018
122.73765334575239
122.28552409595565
121.84076387033686
121.40336241124477
120.97330763301977
120.55058185988011
120.13515178034622
119.62514229117215
119.11688567880297
118.61036346483749
118.10555316807971
117.6024267178677
117.10094866545171
116.60107420545123
116.10274709463786
98.74119491871889
98.74119491871889
98.74119491871889
98.74119491871889
98.74119491871889
98.74119491871889
98.74119491871889
98.74119491871889
98.74119491871889
98.74119491871889
95.14051630551702
95.05278601756154
94.96655824514545
94.88185376061517
94.79868768889848
94.71707071252487
94.63700996492354
94.55850966490148
94.48157154173542
126.32753681128536
125.82367586179458
125.32694041726633
124.83733265740666
124.35485228671409
123.87949650277056
123.41125993108274
122.95013450720376
122.49610929282254
122.04917023393695
121.60929991794634
121.1764774975873
120.75067924195783
120.33188088849974
119.81750948184212
119.30487312262666
118.79397088906823
118.28480304677677
117.7773716088891
117.2716809978609
116.76773882212856
116.26555676297528
98.74119491871889
98.74119491871889
98.74119491871889
98.74119491871889
98.74119491871889
98.74119491871889
98.74119491871889
98.74119491871889
98.74119491871889
98.74119491871889
95.15694962778826
95.06937558914747
94.98333741189916
94.89882783009432
94.81584127921882
94.7343734442605
94.65442092794626
94.57598101658212
94.4990515242893
126.45288074357632
125.94904172383573
125.45216538584772
124.96225383082282
124.47930673439562
124.00332134631411
123.53429249782178
123.07221262489436
122.61707181718367
122.1688579013154
121.72755655876826
121.29315144991456
120.86562422437015
120.44495405088274
119.92816158146545
119.41308339303518
118.89971507077288
118.38805175566924
117.8780879476608
117.36981726218555
116.86323212949291
116.35832342971374
98.74119491871889
98.74119491871889
98.74119491871889
98.74119491871889
98.74119491871889
98.74119491871889
98.74119491871889
98.74119491871889
98.74119491871889
98.74119491871889
95.16201108277956
95.07460610596537
94.98869814204652
94.90428797903836
94.82137574176849
94.73996106306022
94.66004320748823
94.58162115766494
94.50469367100831
126.49376229298
125.98993019554182
125.49300724414036
125.0029956075288
124.51989511209622
124.0437032509152
123.5744151944783
123.11202379912444
122.65651960715044
122.20789083109848
121.76612331591491
121.33120048390387
120.90310331308247
120.48181053605404
119.96421022150102
119.4483185319849
118.93413221049988
118.42164816052515
117.91086355899465
117.40177600003763
116.89438367797085
116.38868561696061
98.74119491871889
98.74119491871889
98.74119491871889
98.74119491871889
98.74119491871889
98.74119491871889
98.74119491871889
98.74119491871889
98.74119491871889
98.74119491871889
95.16319674798712
95.0758031706872
94.9899108378838
94.90551739024532
94.82262078112458
94.74121917311297
94.66131086406817
94.58289423601904
94.50596772184642
126.45288074357711
125.94904172383653
125.45216538584847
124.96225383082353
124.47930673439623
124.00332134631459
123.53429249782228
123.07221262489489
122.61707181718421
122.16885790131596
121.72755655876884
121.29315144991517
120.86562422437076
120.44495405088338
119.92816158146611
119.41308339303582
118.8997150707735
118.38805175566979
117.87808794766136
117.36981726218609
116.86323212949348
116.35832342971435
98.74119491871889
98.74119491871889
98.74119491871889
98.74119491871889
98.74119491871889
98.74119491871889
98.74119491871889
98.74119491871889
98.74119491871889
98.74119491871889
95.16201108278048
95.07460610596634
94.9886981420475
94.90428797903934
94.82137574176947
94.73996106306123
94.66004320748925
94.58162115766596
94.5046936710093
126.3275368112865
125.82367586179573
125.32694041726748
124.83733265740779
124.3548522867152
123.87949650277163
123.41125993108373
122.95013450720474
122.49610929282346
122.04917023393786
121.60929991794725
121.17647749758827
120.7506792419588
120.33188088850078
119.81750948184316
119.30487312262768
118.79397088906924
118.28480304677781
117.77737160889014
117.27168099786196
116.76773882212963
116.26555676297626
98.74119491871889
98.74119491871889
98.74119491871889
98.74119491871889
98.74119491871889
98.74119491871889
98.74119491871889
98.74119491871889
98.74119491871889
98.74119491871889
95.15694962779044
95.06937558914967
94.98333741190139
94.89882783009662
94.81584127922112
94.73437344426279
94.65442092794858
94.57598101658445
94.49905152429163
126.10953073049316
125.6056288886126
125.10913005527688
124.62003603447788
124.13834589089709
123.66405615211424
123.19716112615077
122.73765334575289
122.28552409595615
121.84076387033733
121.4033624112453
120.97330763302038
120.55058185988082
120.13515178034692
119.62514229117288
119.11688567880373
118.61036346483823
118.10555316808035
117.6024267178682
117.10094866545211
116.60107420545157
116.10274709463819
98.74119491871889
98.74119491871889
98.74119491871889
98.74119491871889
98.74119491871889
98.74119491871889
98.74119491871889
98.74119491871889
98.74119491871889
98.74119491871889
95.14051630552261
95.05278601756729
94.9665582451513
94.88185376062101
94.7986876889043
94.71707071253061
94.63700996492913
94.55850966490694
94.48157154174082
125.78507911887618
125.28109820304768
124.78489900319063
124.2964887241857
123.8158738536345
123.34305842990291
122.87804188136863
122.42081675865887
121.97136693861017
121.52966725934861
121.09568605088198
120.66939284478107
120.25077569966034
119.8398778462228
119.33587572736766
118.83376474110248
118.33359594444424
117.83543171552463
117.339349782948
116.84544750308223
116.35384618711774
115.86469498918672
98.74119491871889
98.74119491871889
98.74119491871889
98.74119491871889
98.74119491871889
98.74119491871889
98.74119491871889
98.74119491871889
98.74119491871889
98.74119491871889
95.09250725172899
95.00275081531363
94.91494414930548
94.82902573215601
94.74494877599173
94.66267820717785
94.5821884170011
94.50346166456725
94.42648700406787
125.33830688656298
124.83401004381423
124.33761518245511
123.8491766723509
123.3687799077069
122.89653915905137
122.43259318700915
121.97709732733423
121.53021020120507
121.09207259505767
120.66277559025217
120.24231425710833
119.83051888441011
119.42694269523133
118.93190379790371
118.43845265115311
117.94636926757654
117.45540504889709
116.96527468791777
116.47564845923846
115.98614596666205
115.49633347872474
98.74119491871889
98.74119491871889
98.74119491871889
98.74119491871889
98.74119491871889
98.74119491871889
98.74119491871889
98.74119491871889
98.74119491871889
98.74119491871889
94.93502576693716
94.84562335972085
94.75760074344575
94.67115181518027
94.586428266971
94.50354622064506
94.42259112702072
94.3436211807245
94.26666959393106
124.7728503015655
124.26742005188545
123.7685646240105
123.27636449541042
122.79095779783138
122.31255356462336
121.84145279645098
121.37807867445402
120.92301719608994
120.47706886944312
120.04130998380465
119.61716000679316
119.20646148149943
118.81161590503075
118.33455673176454
117.86139144248286
117.39276443489501
116.9293624331219
116.47192266730573
116.02123701528978
115.57814766635893
115.14352610310294
98.74119491871889
98.74119491871889
98.74119491871889
98.74119491871889
98.74119491871889
98.74119491871889
98.74119491871889
98.74119491871889
98.74119491871889
98.74119491871889
94.50707248656325
94.39081271959998
94.2808033626292
94.17667481766217
94.07813650899969
93.98496378336127
93.8969885597171
93.8140931903657
93.73620652779614
124.14929329257627
123.64214194691763
123.13907997917565
122.63997616296209
122.14461294784932
121.652686741462
121.16380422832609
120.67747694747972
120.19311997229266
119.71006630793168
119.22761902716255
118.74517061420937
118.26238031745677
117.77926812063686
117.18019573072161
116.58193887376254
115.98449536401485
115.3878339211425
114.79189629785004
114.1966177557026
113.60198243783256
113.00814326125833
98.74119491871889
98.74119491871889
98.74119491871889
98.74119491871889
98.74119491871889
98.74119491871889
98.74119491871889
98.74119491871889
98.74119491871889
98.74119491871889
92.9498042524337
92.87228623433393
92.79445000464494
92.71669289411024
92.63930241293733
92.56248537832283
92.48638783300426
92.411106948439
92.3366981308244
124.11728044013759
123.61007144831598
123.10688281798367
122.60756617109153
122.11187958638598
121.61948791280741
121.12995514430678
120.64273163072012
120.15714061383906
119.67237200525076
119.18750339144731
118.70160834013691
118.21404495083014
117.72479274480037
117.11728605761442
116.51048706236888
115.9043953450905
115.29891476537222
114.6938153093772
114.08868008255247
113.48277636024672
112.87490693199372
112.257785256339
100.05350957083621
96.77718098979113
95.59892454579332
95.24826025887036
95.11732770601637
95.03862247731531
94.88142462834675
94.46876647569883
92.94704386834216
92.86806793328145
92.79033602050615
92.71265265115572
92.6352415960304
92.55825030889024
92.48181121550174
92.40602888381716
92.33097750370868
92.25670088889144
124.08540394401733
123.57814430709988
123.07484907567039
122.57535163690065
122.07938563290399
121.58658543408953
121.09647410906
120.60844274402041
120.12172392442098
119.63536295088531
119.14820121670783
118.65895533159606
118.16661906325706
117.6711453463257
117.05513384377227
116.43978024945254
115.82512541982013
115.21104234756446
114.59717021245596
113.98282403938822
113.36681605121245
112.74669898493202
112.11884475380249
100.17950454848554
96.70336360283648
95.52895340378517
95.16319631582654
95.03128956972364
94.94954453222327
94.79259993505536
94.35503107655748
92.86727672887388
92.78803182041622
92.70972104491015
92.63203910425052
92.55481516089392
92.47808697391795
92.40191940351518
92.32637685129225
92.251509957579
92.17735020139116
124.05366956193329
123.54636734530447
123.04298810552888
122.54334509412824
122.04714747793884
121.55400084583187
121.06339008701194
120.57465054987502
120.08692809881843
119.59912678983123
119.10984824126132
118.61740580237912
118.12030743351634
117.6184555610185
116.99377372806805
116.3698012735583