# vtk DataFile Version 2.0
Niestacjonarne zagadnienie cieplne - ogrzewanie wody w garnku stalowym
ASCII
DATASET UNSTRUCTURED_GRID
POINTS 1353 float
0.0 0.0 0.0
0.0 0.0015384615384615385 0.0
0.0 0.003076923076923077 0.0
0.0 0.004615384615384615 0.0
0.0 0.006153846153846154 0.0
0.0 0.007692307692307693 0.0
0.0 0.00923076923076923 0.0
0.0 0.010769230769230769 0.0
0.0 0.012307692307692308 0.0
0.0 0.013846153846153847 0.0
0.0 0.015384615384615385 0.0
0.0 0.016923076923076923 0.0
0.0 0.01846153846153846 0.0
0.0 0.02 0.0
0.0 0.020555555555555556 0.0
0.0 0.021111111111111112 0.0
0.0 0.021666666666666667 0.0
0.0 0.022222222222222223 0.0
0.0 0.02277777777777778 0.0
0.0 0.023333333333333334 0.0
0.0 0.02388888888888889 0.0
0.0 0.024444444444444446 0.0
0.0 0.025 0.0
0.0 0.036111111111111115 0.0
0.0 0.04722222222222222 0.0
0.0 0.058333333333333334 0.0
0.0 0.06944444444444445 0.0
0.0 0.08055555555555556 0.0
0.0 0.09166666666666667 0.0
0.0 0.10277777777777777 0.0
0.0 0.1138888888888889 0.0
0.0 0.125 0.0
0.0 0.12555555555555556 0.0
0.0 0.12611111111111112 0.0
0.0 0.12666666666666668 0.0
0.0 0.1272222222222222 0.0
0.0 0.12777777777777777 0.0
0.0 0.12833333333333333 0.0
0.0 0.1288888888888889 0.0
0.0 0.12944444444444445 0.0
0.0 0.13 0.0
5.555555555555556E-4 0.0 0.0
5.555555555555556E-4 0.0015384615384615385 0.0
5.555555555555556E-4 0.003076923076923077 0.0
5.555555555555556E-4 0.004615384615384615 0.0
5.555555555555556E-4 0.006153846153846154 0.0
5.555555555555556E-4 0.007692307692307693 0.0
5.555555555555556E-4 0.00923076923076923 0.0
5.555555555555556E-4 0.010769230769230769 0.0
5.555555555555556E-4 0.012307692307692308 0.0
5.555555555555556E-4 0.013846153846153847 0.0
5.555555555555556E-4 0.015384615384615385 0.0
5.555555555555556E-4 0.016923076923076923 0.0
5.555555555555556E-4 0.01846153846153846 0.0
5.555555555555556E-4 0.02 0.0
5.555555555555556E-4 0.020555555555555556 0.0
5.555555555555556E-4 0.021111111111111112 0.0
5.555555555555556E-4 0.021666666666666667 0.0
5.555555555555556E-4 0.022222222222222223 0.0
5.555555555555556E-4 0.02277777777777778 0.0
5.555555555555556E-4 0.023333333333333334 0.0
5.555555555555556E-4 0.02388888888888889 0.0
5.555555555555556E-4 0.024444444444444446 0.0
5.555555555555556E-4 0.025 0.0
5.555555555555556E-4 0.036111111111111115 0.0
5.555555555555556E-4 0.04722222222222222 0.0
5.555555555555556E-4 0.058333333333333334 0.0
5.555555555555556E-4 0.06944444444444445 0.0
5.555555555555556E-4 0.08055555555555556 0.0
5.555555555555556E-4 0.09166666666666667 0.0
5.555555555555556E-4 0.10277777777777777 0.0
5.555555555555556E-4 0.1138888888888889 0.0
5.555555555555556E-4 0.125 0.0
5.555555555555556E-4 0.12555555555555556 0.0
5.555555555555556E-4 0.12611111111111112 0.0
5.555555555555556E-4 0.12666666666666668 0.0
5.555555555555556E-4 0.1272222222222222 0.0
5.555555555555556E-4 0.12777777777777777 0.0
5.555555555555556E-4 0.12833333333333333 0.0
5.555555555555556E-4 0.1288888888888889 0.0
5.555555555555556E-4 0.12944444444444445 0.0
5.555555555555556E-4 0.13 0.0
0.0011111111111111111 0.0 0.0
0.0011111111111111111 0.0015384615384615385 0.0
0.0011111111111111111 0.003076923076923077 0.0
0.0011111111111111111 0.004615384615384615 0.0
0.0011111111111111111 0.006153846153846154 0.0
0.0011111111111111111 0.007692307692307693 0.0
0.0011111111111111111 0.00923076923076923 0.0
0.0011111111111111111 0.010769230769230769 0.0
0.0011111111111111111 0.012307692307692308 0.0
0.0011111111111111111 0.013846153846153847 0.0
0.0011111111111111111 0.015384615384615385 0.0
0.0011111111111111111 0.016923076923076923 0.0
0.0011111111111111111 0.01846153846153846 0.0
0.0011111111111111111 0.02 0.0
0.0011111111111111111 0.020555555555555556 0.0
0.0011111111111111111 0.021111111111111112 0.0
0.0011111111111111111 0.021666666666666667 0.0
0.0011111111111111111 0.022222222222222223 0.0
0.0011111111111111111 0.02277777777777778 0.0
0.0011111111111111111 0.023333333333333334 0.0
0.0011111111111111111 0.02388888888888889 0.0
0.0011111111111111111 0.024444444444444446 0.0
0.0011111111111111111 0.025 0.0
0.0011111111111111111 0.036111111111111115 0.0
0.0011111111111111111 0.04722222222222222 0.0
0.0011111111111111111 0.058333333333333334 0.0
0.0011111111111111111 0.06944444444444445 0.0
0.0011111111111111111 0.08055555555555556 0.0
0.0011111111111111111 0.09166666666666667 0.0
0.0011111111111111111 0.10277777777777777 0.0
0.0011111111111111111 0.1138888888888889 0.0
0.0011111111111111111 0.125 0.0
0.0011111111111111111 0.12555555555555556 0.0
0.0011111111111111111 0.12611111111111112 0.0
0.0011111111111111111 0.12666666666666668 0.0
0.0011111111111111111 0.1272222222222222 0.0
0.0011111111111111111 0.12777777777777777 0.0
0.0011111111111111111 0.12833333333333333 0.0
0.0011111111111111111 0.1288888888888889 0.0
0.0011111111111111111 0.12944444444444445 0.0
0.0011111111111111111 0.13 0.0
0.0016666666666666666 0.0 0.0
0.0016666666666666666 0.0015384615384615385 0.0
0.0016666666666666666 0.003076923076923077 0.0
0.0016666666666666666 0.004615384615384615 0.0
0.0016666666666666666 0.006153846153846154 0.0
0.0016666666666666666 0.007692307692307693 0.0
0.0016666666666666666 0.00923076923076923 0.0
0.0016666666666666666 0.010769230769230769 0.0
0.0016666666666666666 0.012307692307692308 0.0
0.0016666666666666666 0.013846153846153847 0.0
0.0016666666666666666 0.015384615384615385 0.0
0.0016666666666666666 0.016923076923076923 0.0
0.0016666666666666666 0.01846153846153846 0.0
0.0016666666666666666 0.02 0.0
0.0016666666666666666 0.020555555555555556 0.0
0.0016666666666666666 0.021111111111111112 0.0
0.0016666666666666666 0.021666666666666667 0.0
0.0016666666666666666 0.022222222222222223 0.0
0.0016666666666666666 0.02277777777777778 0.0
0.0016666666666666666 0.023333333333333334 0.0
0.0016666666666666666 0.02388888888888889 0.0
0.0016666666666666666 0.024444444444444446 0.0
0.0016666666666666666 0.025 0.0
0.0016666666666666666 0.036111111111111115 0.0
0.0016666666666666666 0.04722222222222222 0.0
0.0016666666666666666 0.058333333333333334 0.0
0.0016666666666666666 0.06944444444444445 0.0
0.0016666666666666666 0.08055555555555556 0.0
0.0016666666666666666 0.09166666666666667 0.0
0.0016666666666666666 0.10277777777777777 0.0
0.0016666666666666666 0.1138888888888889 0.0
0.0016666666666666666 0.125 0.0
0.0016666666666666666 0.12555555555555556 0.0
0.0016666666666666666 0.12611111111111112 0.0
0.0016666666666666666 0.12666666666666668 0.0
0.0016666666666666666 0.1272222222222222 0.0
0.0016666666666666666 0.12777777777777777 0.0
0.0016666666666666666 0.12833333333333333 0.0
0.0016666666666666666 0.1288888888888889 0.0
0.0016666666666666666 0.12944444444444445 0.0
0.0016666666666666666 0.13 0.0
0.0022222222222222222 0.0 0.0
0.0022222222222222222 0.0015384615384615385 0.0
0.0022222222222222222 0.003076923076923077 0.0
0.0022222222222222222 0.004615384615384615 0.0
0.0022222222222222222 0.006153846153846154 0.0
0.0022222222222222222 0.007692307692307693 0.0
0.0022222222222222222 0.00923076923076923 0.0
0.0022222222222222222 0.010769230769230769 0.0
0.0022222222222222222 0.012307692307692308 0.0
0.0022222222222222222 0.013846153846153847 0.0
0.0022222222222222222 0.015384615384615385 0.0
0.0022222222222222222 0.016923076923076923 0.0
0.0022222222222222222 0.01846153846153846 0.0
0.0022222222222222222 0.02 0.0
0.0022222222222222222 0.020555555555555556 0.0
0.0022222222222222222 0.021111111111111112 0.0
0.0022222222222222222 0.021666666666666667 0.0
0.0022222222222222222 0.022222222222222223 0.0
0.0022222222222222222 0.02277777777777778 0.0
0.0022222222222222222 0.023333333333333334 0.0
0.0022222222222222222 0.02388888888888889 0.0
0.0022222222222222222 0.024444444444444446 0.0
0.0022222222222222222 0.025 0.0
0.0022222222222222222 0.036111111111111115 0.0
0.0022222222222222222 0.04722222222222222 0.0
0.0022222222222222222 0.058333333333333334 0.0
0.0022222222222222222 0.06944444444444445 0.0
0.0022222222222222222 0.08055555555555556 0.0
0.0022222222222222222 0.09166666666666667 0.0
0.0022222222222222222 0.10277777777777777 0.0
0.0022222222222222222 0.1138888888888889 0.0
0.0022222222222222222 0.125 0.0
0.0022222222222222222 0.12555555555555556 0.0
0.0022222222222222222 0.12611111111111112 0.0
0.0022222222222222222 0.12666666666666668 0.0
0.0022222222222222222 0.1272222222222222 0.0
0.0022222222222222222 0.12777777777777777 0.0
0.0022222222222222222 0.12833333333333333 0.0
0.0022222222222222222 0.1288888888888889 0.0
0.0022222222222222222 0.12944444444444445 0.0
0.0022222222222222222 0.13 0.0
0.002777777777777778 0.0 0.0
0.002777777777777778 0.0015384615384615385 0.0
0.002777777777777778 0.003076923076923077 0.0
0.002777777777777778 0.004615384615384615 0.0
0.002777777777777778 0.006153846153846154 0.0
0.002777777777777778 0.007692307692307693 0.0
0.002777777777777778 0.00923076923076923 0.0
0.002777777777777778 0.010769230769230769 0.0
0.002777777777777778 0.012307692307692308 0.0
0.002777777777777778 0.013846153846153847 0.0
0.002777777777777778 0.015384615384615385 0.0
0.002777777777777778 0.016923076923076923 0.0
0.002777777777777778 0.01846153846153846 0.0
0.002777777777777778 0.02 0.0
0.002777777777777778 0.020555555555555556 0.0
0.002777777777777778 0.021111111111111112 0.0
0.002777777777777778 0.021666666666666667 0.0
0.002777777777777778 0.022222222222222223 0.0
0.002777777777777778 0.02277777777777778 0.0
0.002777777777777778 0.023333333333333334 0.0
0.002777777777777778 0.02388888888888889 0.0
0.002777777777777778 0.024444444444444446 0.0
0.002777777777777778 0.025 0.0
0.002777777777777778 0.036111111111111115 0.0
0.002777777777777778 0.04722222222222222 0.0
0.002777777777777778 0.058333333333333334 0.0
0.002777777777777778 0.06944444444444445 0.0
0.002777777777777778 0.08055555555555556 0.0
0.002777777777777778 0.09166666666666667 0.0
0.002777777777777778 0.10277777777777777 0.0
0.002777777777777778 0.1138888888888889 0.0
0.002777777777777778 0.125 0.0
0.002777777777777778 0.12555555555555556 0.0
0.002777777777777778 0.12611111111111112 0.0
[...]
POINT_DATA 1353
SCALARS Temperatura float 1
LOOKUP_TABLE default
89.23524391597714
88.70027154209801
88.17085777154294
87.64663067477993
87.12725281167417
86.6123133759696
86.10128930543436
85.59349700713277
85.08802828847574
84.58363071777924
84.07857824747182
83.56999381620788
83.05438378499322
82.51299708976107
81.8131019179491
81.14724184575398
80.49199071456844
79.84319086621338
79.1982245710929
78.55538388310747
77.91343021415797
77.27147529667565
76.6289552702106
65.39687754908724
61.319055193739665
60.119798811100374
59.714618628172936
59.58147178230251
59.51170925067039
59.411266167046485
59.10329601178155
58.273607545498066
58.22864419009174
58.18421389183253
58.14039414450962
58.097249864452635
58.054834541973534
58.01319113314649
57.97235261637419
57.93234225424461
57.89317366464828
89.25588217938487
88.72079776973447
88.19124490220729
87.66688399882159
87.1473780503056
86.63231923476089
86.12118698159172
85.61330233158664
85.10776033788169
84.6033331209832
84.09825291061641
83.58998759358312
83.07375479321884
82.53977874477224
81.86922660526855
81.20580768502766
80.5518557348063
79.90353910694098
79.25872495862025
78.61583121594875
77.9736636478785
77.33133841435784
76.68827897354043
65.43118551098534
61.36038688202322
60.16083510953648
59.75594004805045
59.62284620680891
59.553119608826435
59.452657245771995
59.145243337889724
58.31346378352804
58.26840807138531
58.223892891424754
58.17999515842582
58.136779241232496
58.094298227254484
58.0525948477583
58.01170200415445
57.971642967766954
57.93243138831134
89.2766175323184
88.74147960840276
88.2118290711935
87.68737734859914
87.16779624397347
86.65268532373975
86.14153257503456
85.63367077717972
85.12821542839048
84.62396627300382
84.11923657928844
83.6115853160526
83.0966867118897
82.57011920614677
81.91246242336973
81.25810031020251
80.60827601227146
79.96249190091754
79.31934969520081
78.67757946189198
78.03608406083481
77.39397736090164
76.75063334755532
65.44109576840141
61.3999681819091
60.201877052924345
59.79869738731637
59.666024696095974
59.59655327997135
59.49622992926668
59.19113361749501
58.35475676571624
58.309516469270555
58.26483817340395
58.22079670252242
58.177454532830396
58.13486340757247
58.093065339353124
58.05209300486967
58.01196972321819
57.9727092568602
89.297479323387
88.76231807822805
88.23260949715977
87.70810892829508
87.1885046566974
86.67340792040791
86.16232064717632
85.6545954484537
85.1493790552717
84.64552318581632
84.14144893383911
83.63487869825751
83.12245952714727
82.60210573235511
81.9535429318077
81.30681840633217
80.66261137470431
80.0207811339064
79.38059400258292
78.74105217349313
78.10113217130429
77.45989431151717
76.81659042733165
65.42609545987924
61.43805384186812
60.242856072287374
59.842916966342806
59.71100192643254
59.64201927951531
59.54196701345903
59.24100555807328
58.39746485865278
58.35194970219939
58.307032360579186
58.26278341437506
58.219261736721016
58.176516739424365
58.134589401959104
58.09351228939817
58.0533090316257
58.01399372245599
89.31848275495963
88.78331676861674
88.25358451702405
87.72907566514031
87.20949872657276
86.69448072409828
86.18354249466356
85.6760636092665
85.17123261751817
84.66797273248861
84.16483153729898
83.65979908551586
83.15039242601412
82.63547606085106
81.99444415608689
81.35462081875771
80.71629198389202
80.07931250222535
79.44312322937381
78.80686334826682
78.16949284060352
77.52991539954878
76.88713076871974
65.3853287264748
61.47507986082348
60.28365308883975
59.888643610881566
59.75776697923291
59.68953181397044
59.589837603366824
59.29492198510133
58.441549749709
58.39567369412859
58.35044605710294
58.305929717925906
58.26217759297473
58.21923582792787
58.1771445639712
58.13593693546908
58.09563756602871
58.05626131723193
89.33963588618043
88.80447830299546
88.27475187454962
87.75027313016243
87.23077209418473
86.71589501383177
86.2051860580792
85.69805795484312
85.19375056889439
84.69127240855603
84.1893187026879
83.68618922528846
83.18005214270305
82.67014401507952
82.03595697846528
81.40269519089397
80.77041203938852
80.13889065186285
79.50760173488611
78.87569646582455
78.24202053997999
77.6051750095901
76.96369425153785
65.31756821363857
61.51167944626229
60.32409105259348
59.935943669935945
59.806302062440295
59.73911114814614
59.63979598651902
59.35297138509366
58.486954344920356
58.44063963479896
58.3950389550773
58.350201636146544
58.30617117642026
58.26299017699065
58.220699373482965
58.17933431648719
58.13892185182031
58.09947828509459
89.36094243629087
88.82580346945127
88.29610840771277
87.77169556791897
87.25231664898462
86.73763976332638
86.22723617093405
85.72055699251966
85.21690098249242
84.71537211586565
84.21482871796684
83.71387583686946
83.21114933759232
82.70603839351644
82.07841837129583
81.45162881409226
80.82559842802824
80.20006811075696
79.57452758084375
78.94814269481505
78.31961087439157
77.6870793073966
77.04826829828673
65.22116986900083
61.54870718367487
60.36392378978746
59.98490952421402
59.85658059737879
59.7907848919587
59.69177997459968
59.41527022924255
58.53359936056367
58.48678373578458
58.44076282500203
58.3955605576611
58.35120697845896
58.30774221268789
58.26521345171199
58.22366168513994
58.18311765313072
58.14359991532342
89.38240307230443
88.84729112196555
88.31764979281144
87.79333590246799
87.2741226002322
86.75970178808039
86.2496748492873
85.74353544904339
85.24064675629019
84.74021512111543
84.24126877147373
83.742693852891
83.24347042454086
82.74307290360728
82.12194775730772
81.50167593718054
80.88213928877774
80.26309134581687
79.64409829057065
79.02444640406755
78.40295535985595
77.77718760487414
77.14353966379953
65.09400305042567
61.587274050597074
60.4028202175558
60.0356659412972
59.90856452386649
59.84458979337525
59.745708607722925
59.481966308177164
58.58137794092675
58.53402807863471
58.487565852111295
58.44197587536629
58.397247483212546
58.353447579186515
58.310636845572034
58.268865221111476
58.2281689369904
58.18856949338552
89.40401609858311
88.86893829513353
88.33937041973118
87.81518574052649
87.29617856506805
86.78206592045086
86.27248159697541
85.76696480849456
85.26494666946903
84.76573942258442
84.26854075561481
83.77249088971864
83.27684054097496
82.78114248199536
82.16653731208027
81.55288383332426
80.94007048988234
80.32791495102705
79.71613204278898
79.10428245269092
78.49164206752849
77.8770725064011
77.25315472375524
64.93334234590942
61.628797650896765
60.44034241691155
60.08837882363891
59.96220062291784
59.90057408848314
59.80147934718966
59.55324237976953
58.63015117317914
58.582210761040024
58.53547547008042
58.48942670189917
58.444252979200556
58.400053415781166
58.35690821935395
58.314878378782275
58.27400637520539
58.23431686216696
89.42577788735373
88.89074036993756
88.36126336447708
87.8372353920989
87.31847167026507
86.80471520241733
86.29563373415598
85.79081389468953
85.28975636900812
84.79187949217861
84.29654512197571
83.80312532459142
83.31110403712646
82.82012587826215
82.2121006679657
81.60516794983559
80.99925130754254
80.39426045841964
79.79009863826509
79.1866871575544
78.58402412424405
77.9823065043664
62.52989731652861
62.52989731652861
62.52989731652861
62.52989731652861
62.52989731652861
62.52989731652861
62.52989731652861
62.52989731652861
62.52989731652861
62.52989731652861
58.63188083379948
58.58452254032136
58.53789574970993
58.4921750307745
58.44749399613528
58.403951731995626
58.36161958263714
58.320545494656066
58.280756719049
89.85838467650036
89.32467355566408
88.79852217184207
88.27999570360122
87.76920452697983
87.26631477116327
86.77156539311741
86.28529297142894
85.80796555826238
85.3402268506945
84.88295103674895
84.4373080018487
84.00484558141012
83.58761973511065
83.08229195331272
82.58089323364723
82.08398128835405
81.59214821847242
81.10602633261998
80.62629000743361
80.15364897691364
79.68882491647221
62.52989731652861
62.52989731652861
62.52989731652861
62.52989731652861
62.52989731652861
62.52989731652861
62.52989731652861
62.52989731652861
62.52989731652861
62.52989731652861
59.57781009770821
59.50494880351108
59.43695251414299
59.37360337846275
59.3147259012839
59.260182200545394
59.20986785249755
59.16370898626688
59.1216603504684
90.25939712088511
89.72658585863762
89.20246760013504
88.68708859426471
88.18052058318429
87.68285924578238
87.19422086609129
86.71473616709665
86.24453974302148
85.78375288425848
85.33245692157166
84.89065317326386
84.45820198844223
84.03472397169438
83.5156942979625
82.9986464678678
82.48339268961061
81.96972117201535
81.45738949229167
80.94611845371911
80.43558757870161
79.92543438399115
62.52989731652861
62.52989731652861
62.52989731652861
62.52989731652861
62.52989731652861
62.52989731652861
62.52989731652861
62.52989731652861
62.52989731652861
62.52989731652861
59.83424093562945
59.77805707300213
59.72373553280372
59.67139294217182
59.62112146302109
59.5729919643086
59.52705660823363
59.483350725791794
59.441894094670005
90.57815084383788
90.04558789513936
89.52167654271051
89.00642498273933
88.49984108540461
88.00193095112836
87.51269709880215
87.03213653776588
86.5602391956599
86.09698752155356
85.64235858324274
85.1963307969144
84.75889928799562
84.33010800148803
83.80465921189246
83.28146814985938
82.7605802491948
82.24205054197976
81.72594703338879
81.21235424116364
80.70137666444742
80.193141670447
62.52989731652861
62.52989731652861
62.52989731652861
62.52989731652861
62.52989731652861
62.52989731652861
62.52989731652861
62.52989731652861
62.52989731652861
62.52989731652861
59.92891555728111
59.87239003329858
59.81809439503913
59.76598981005964
59.71604617928053
59.66824052088579
59.62255569490904
59.57897947421106
59.53750391121772
90.80955952341927
90.27705500394282
89.75293580546118
89.23720562345667
88.72986611572014
88.23091707103062
87.74035667683289
87.25818190058398
86.78438895364798
86.31897370816631
85.86193175890763
85.41325748398835
84.97294070032348
84.54095785692499
84.01125757063795
83.48370362325441
82.95828118177268
82.43497200057767
81.91375307976354
81.39459516444485
80.87746111391627
80.36230424219971
62.52989731652861
62.52989731652861
62.52989731652861
62.52989731652861
62.52989731652861
62.52989731652861
62.52989731652861
62.52989731652861
62.52989731652861
62.52989731652861
59.957530806125405
59.902247174001694
59.84891793512145
59.79755493105033
59.748166591205596
59.70075861209544
59.65533448104647
59.61189585513075
59.57044281780108
90.96483136559635
90.43235620147722
89.90806918398627
89.39197431019178
88.88407373314584
88.38436773565013
87.89285467542715
87.40953088412175
86.93439050708638
86.4674252895684
86.00862436016754
85.55797416657443
85.11545897560822
84.68106294305386
84.14823882987251
83.61755155130203
83.08900140475208
82.56258970223973
82.03831924653718
81.5161948904342
80.99622418518592
80.47841810641879
62.52989731652861
62.52989731652861
62.52989731652861
62.52989731652861
62.52989731652861
62.52989731652861
62.52989731652861
62.52989731652861
62.52989731652861
62.52989731652861
59.9673198880416
59.91212098537647
59.85889894605937
59.80764829559885
59.75836458071897
59.71104410705785
59.66568374097451
59.62228076766775
59.58083279600142
91.0540073489451
90.52154778814824
89.9971605262656
89.48084947505761
88.9726167186767
88.47246251233895
87.98038528703654
87.49638166748511
87.02044651215029
86.5525729832092
86.09275264628522
85.64097557270787
85.19723033615443
84.76150358740726
84.22695862437163
83.69453566154853
83.16423186682874
82.63604402400105
82.10996836445433
81.58600036012132
81.06413447009139
80.54436383726171
62.52989731652861
62.52989731652861
62.52989731652861
62.52989731652861
62.52989731652861
62.52989731652861
62.52989731652861
62.52989731652861
62.52989731652861
62.52989731652861
59.97031721041282
59.91522056081314
59.86207695479028
59.8108859240431
59.76164658200444
59.71435772512157
59.66901790773907
59.62562549491769
59.58417869743264
91.08307534933208
90.5506206858881
90.02620020692372
89.50981787348913
89.0014758803578
88.50117466293082
88.00891290520582
87.52468754530484
87.048493773226
86.58032501412724
86.12017289181009
85.66802717793891
85.22387577319392
84.78770488246458
84.25258348909921
83.71958029110274
83.18869345200814
82.65992127120279
82.1332622805373
81.60871536673072
81.08627992603499
80.56595605627703
62.52989731652861
62.52989731652861
62.52989731652861
62.52989731652861
62.52989731652861
62.52989731652861
62.52989731652861
62.52989731652861
62.52989731652861
62.52989731652861
59.971019001469486
59.91592844694985
59.86279372357913
59.811612407450774
59.76238225349384
59.71510113369518
59.66976699207952
59.62637781330344
59.58493160205239
91.05400734894562
90.52154778814877
89.9971605262661
89.48084947505808
88.97261671867712
88.47246251233929
87.98038528703687
87.49638166748547
87.02044651215066
86.5525729832096
86.09275264628562
85.64097557270827
85.19723033615486
84.76150358740769
84.2269586243721
83.69453566154897
83.16423186682918
82.63604402400145
82.10996836445474
81.58600036012173
81.0641344700918
80.54436383726218
62.52989731652861
62.52989731652861
62.52989731652861
62.52989731652861
62.52989731652861
62.52989731652861
62.52989731652861
62.52989731652861
62.52989731652861
62.52989731652861
59.97031721041337
59.915220560813715
59.86207695479086
59.81088592404368
59.761646582005035
59.71435772512219
59.66901790773969
59.6256254949183
59.58417869743325
90.96483136559714
90.43235620147802
89.90806918398708
89.39197431019258
88.88407373314664
88.38436773565093
87.89285467542788
87.40953088412246
86.93439050708706
86.46742528956909
86.00862436016824
85.55797416657512
85.11545897560892
84.68106294305461
84.14823882987325
83.61755155130274
83.08900140475279
82.56258970224044
82.0383192465379
81.51619489043493
80.99622418518668
80.47841810641951
62.52989731652861
62.52989731652861
62.52989731652861
62.52989731652861
62.52989731652861
62.52989731652861
62.52989731652861
62.52989731652861
62.52989731652861
62.52989731652861
59.96731988804297
59.912120985377854
59.85889894606079
59.807648295600316
59.758364580720425
59.711044107059294
59.66568374097596
59.62228076766922
59.58083279600287
90.80955952341985
90.27705500394336
89.75293580546169
89.23720562345714
88.72986611572061
88.23091707103104
87.74035667683329
87.25818190058436
86.78438895364835
86.3189737081667
85.86193175890807
85.41325748398883
84.97294070032402
84.54095785692553
84.01125757063852
83.48370362325495
82.95828118177319
82.43497200057814
81.91375307976392
81.39459516444516
80.87746111391654
80.36230424219994
62.52989731652861
62.52989731652861
62.52989731652861
62.52989731652861
62.52989731652861
62.52989731652861
62.52989731652861
62.52989731652861
62.52989731652861
62.52989731652861
59.9575308061289
59.90224717400528
59.8489179351251
59.79755493105399
59.74816659120925
59.70075861209906
59.65533448105
59.61189585513418
59.57044281780449
90.57815084383822
90.04558789513973
89.5216765427109
89.0064249827398
88.49984108540505
88.00193095112883
87.51269709880263
87.03213653776635
86.56023919566042
86.09698752155407
85.64235858324321
85.19633079691484
84.75889928799602
84.33010800148841
83.80465921189287
83.28146814985973
82.76058024919517
82.24205054198018
81.7259470333893
81.21235424116419
80.70137666444795
80.1931416704475
62.52989731652861
62.52989731652861
62.52989731652861
62.52989731652861
62.52989731652861
62.52989731652861
62.52989731652861
62.52989731652861
62.52989731652861
62.52989731652861
59.92891555728396
59.872390033301485
59.81809439504209
59.765989810062656
59.716046179283616
59.6682405208889
59.62255569491219
59.57897947421427
59.537503911220945
90.25939712088481
89.7265858586373
89.20246760013471
88.68708859426432
88.18052058318389
87.68285924578201
87.19422086609092
86.71473616709629
86.24453974302111
85.78375288425816
85.33245692157145
84.8906531732637
84.4582019884421
84.03472397169429
83.51569429796241
82.99864646786776
82.48339268961057
81.96972117201534
81.45738949229161
80.94611845371902
80.43558757870152
79.925434383991
62.52989731652861
62.52989731652861
62.52989731652861
62.52989731652861
62.52989731652861
62.52989731652861
62.52989731652861
62.52989731652861
62.52989731652861
62.52989731652861
59.8342409356316
59.7780570730043
59.723735532805904
59.67139294217399
59.621121463023265
59.57299196431079
59.5270566082358
59.48335072579394
59.44189409467216
89.85838467649965
89.32467355566338
88.79852217184137
88.27999570360053
87.76920452697914
87.26631477116261
86.77156539311683
86.28529297142835
85.80796555826181
85.340226850694
84.88295103674851
84.43730800184835
84.0048455814098
83.58761973511034
83.08229195331249
82.580893233647
82.08398128835385
81.59214821847222
81.10602633261978
80.62629000743338
80.1536489769134
79.68882491647196
62.52989731652861
62.52989731652861
62.52989731652861
62.52989731652861
62.52989731652861
62.52989731652861
62.52989731652861
62.52989731652861
62.52989731652861
62.52989731652861
59.577810097709616
59.50494880351251
59.43695251414447
59.373603378464274
59.314725901285435
59.260182200546936
59.209867852499116
59.16370898626848
59.12166035046999
89.42577788735282
88.89074036993667
88.36126336447629
87.83723539209822
87.31847167026454
86.80471520241687
86.29563373415556
85.7908138946892
85.28975636900775
84.79187949217821
84.29654512197531
83.803125324591
83.31110403712607
82.82012587826188
82.21210066796552
81.60516794983552
80.99925130754255
80.39426045841977
79.7900986382653
79.18668715755472
78.58402412424441
77.98230650436676
62.52989731652861
62.52989731652861
62.52989731652861
62.52989731652861
62.52989731652861
62.52989731652861
62.52989731652861
62.52989731652861
62.52989731652861
62.52989731652861
58.63188083380112
58.58452254032304
58.53789574971163
58.49217503077621
58.44749399613703
58.403951731997395
58.3616195826389
58.320545494657765
58.280756719050714
89.4040160985821
88.86893829513255
88.33937041973037
87.81518574052578
87.29617856506754
86.78206592045045
86.27248159697494
85.76696480849418
85.2649466694686
84.76573942258399
84.26854075561445
83.77249088971811
83.27684054097453
82.78114248199512
82.16653731208007
81.5528838333242
80.94007048988239
80.32791495102715
79.71613204278927
79.1042824526913
78.49164206752882
77.87707250640145
77.2531547237556
64.93334234591084
61.62879765089682
60.44034241691153
60.088378823639964
59.96220062291822
59.90057408848383
59.80147934719034
59.553242379768776
58.63015117318071
58.58221076104162
58.535475470082034
58.48942670190084
58.44425297920224
58.40005341578282
58.3569082193556
58.31487837878396
58.274006375207065
58.23431686216861
89.3824030723034
88.84729112196457
88.31764979281057
87.7933359024673
87.2741226002317
86.75970178807995
86.24967484928688
85.74353544904304
85.24064675628976
84.74021512111504
84.24126877147333
83.74269385289051
83.24347042454048
82.74307290360704
82.12194775730755
81.50167593718048
80.88213928877781
80.263091345817
79.64409829057094
79.02444640406792
78.40295535985632
77.77718760487457
77.14353966379997
65.09400305042718
61.58727405059715
60.402820217555835
60.035665941298255
59.9085645238669
59.84458979337592
59.74570860772366
59.48196630817637
58.58137794092834
58.53402807863635
58.48756585211292
58.44197587536789
58.39724748321416
58.35344757918813
58.310636845573654
58.26886522111308
58.22816893699199
58.1885694933871
89.36094243628979
88.82580346945025
88.29610840771187
87.77169556791827
87.25231664898408
86.73763976332599
86.22723617093361
85.7205569925193
85.21690098249195
84.71537211586524
84.21482871796644
83.71387583686904
83.21114933759189
82.7060383935162
82.07841837129573
81.45162881409223
80.8255984280283
80.20006811075713
79.57452758084408
78.94814269481542
78.31961087439197
77.68707930739707
77.04826829828721
65.22116986900235
61.54870718367503
60.36392378978756
59.98490952421513
59.856580597379214
59.790784891959355
59.69177997460042
59.41527022924175
58.53359936056528
58.48678373578622
58.440762825003645
58.39556055766269
58.35120697846053
58.30774221268945
58.26521345171354
58.22366168514148
58.18311765313231
58.143599915325034
89.33963588617937
88.80447830299451