# vtk DataFile Version 2.0
Niestacjonarne zagadnienie cieplne - ogrzewanie wody w garnku stalowym
ASCII
DATASET UNSTRUCTURED_GRID
POINTS 1353 float
0.0 0.0 0.0
0.0 0.0015384615384615385 0.0
0.0 0.003076923076923077 0.0
0.0 0.004615384615384615 0.0
0.0 0.006153846153846154 0.0
0.0 0.007692307692307693 0.0
0.0 0.00923076923076923 0.0
0.0 0.010769230769230769 0.0
0.0 0.012307692307692308 0.0
0.0 0.013846153846153847 0.0
0.0 0.015384615384615385 0.0
0.0 0.016923076923076923 0.0
0.0 0.01846153846153846 0.0
0.0 0.02 0.0
0.0 0.020555555555555556 0.0
0.0 0.021111111111111112 0.0
0.0 0.021666666666666667 0.0
0.0 0.022222222222222223 0.0
0.0 0.02277777777777778 0.0
0.0 0.023333333333333334 0.0
0.0 0.02388888888888889 0.0
0.0 0.024444444444444446 0.0
0.0 0.025 0.0
0.0 0.036111111111111115 0.0
0.0 0.04722222222222222 0.0
0.0 0.058333333333333334 0.0
0.0 0.06944444444444445 0.0
0.0 0.08055555555555556 0.0
0.0 0.09166666666666667 0.0
0.0 0.10277777777777777 0.0
0.0 0.1138888888888889 0.0
0.0 0.125 0.0
0.0 0.12555555555555556 0.0
0.0 0.12611111111111112 0.0
0.0 0.12666666666666668 0.0
0.0 0.1272222222222222 0.0
0.0 0.12777777777777777 0.0
0.0 0.12833333333333333 0.0
0.0 0.1288888888888889 0.0
0.0 0.12944444444444445 0.0
0.0 0.13 0.0
5.555555555555556E-4 0.0 0.0
5.555555555555556E-4 0.0015384615384615385 0.0
5.555555555555556E-4 0.003076923076923077 0.0
5.555555555555556E-4 0.004615384615384615 0.0
5.555555555555556E-4 0.006153846153846154 0.0
5.555555555555556E-4 0.007692307692307693 0.0
5.555555555555556E-4 0.00923076923076923 0.0
5.555555555555556E-4 0.010769230769230769 0.0
5.555555555555556E-4 0.012307692307692308 0.0
5.555555555555556E-4 0.013846153846153847 0.0
5.555555555555556E-4 0.015384615384615385 0.0
5.555555555555556E-4 0.016923076923076923 0.0
5.555555555555556E-4 0.01846153846153846 0.0
5.555555555555556E-4 0.02 0.0
5.555555555555556E-4 0.020555555555555556 0.0
5.555555555555556E-4 0.021111111111111112 0.0
5.555555555555556E-4 0.021666666666666667 0.0
5.555555555555556E-4 0.022222222222222223 0.0
5.555555555555556E-4 0.02277777777777778 0.0
5.555555555555556E-4 0.023333333333333334 0.0
5.555555555555556E-4 0.02388888888888889 0.0
5.555555555555556E-4 0.024444444444444446 0.0
5.555555555555556E-4 0.025 0.0
5.555555555555556E-4 0.036111111111111115 0.0
5.555555555555556E-4 0.04722222222222222 0.0
5.555555555555556E-4 0.058333333333333334 0.0
5.555555555555556E-4 0.06944444444444445 0.0
5.555555555555556E-4 0.08055555555555556 0.0
5.555555555555556E-4 0.09166666666666667 0.0
5.555555555555556E-4 0.10277777777777777 0.0
5.555555555555556E-4 0.1138888888888889 0.0
5.555555555555556E-4 0.125 0.0
5.555555555555556E-4 0.12555555555555556 0.0
5.555555555555556E-4 0.12611111111111112 0.0
5.555555555555556E-4 0.12666666666666668 0.0
5.555555555555556E-4 0.1272222222222222 0.0
5.555555555555556E-4 0.12777777777777777 0.0
5.555555555555556E-4 0.12833333333333333 0.0
5.555555555555556E-4 0.1288888888888889 0.0
5.555555555555556E-4 0.12944444444444445 0.0
5.555555555555556E-4 0.13 0.0
0.0011111111111111111 0.0 0.0
0.0011111111111111111 0.0015384615384615385 0.0
0.0011111111111111111 0.003076923076923077 0.0
0.0011111111111111111 0.004615384615384615 0.0
0.0011111111111111111 0.006153846153846154 0.0
0.0011111111111111111 0.007692307692307693 0.0
0.0011111111111111111 0.00923076923076923 0.0
0.0011111111111111111 0.010769230769230769 0.0
0.0011111111111111111 0.012307692307692308 0.0
0.0011111111111111111 0.013846153846153847 0.0
0.0011111111111111111 0.015384615384615385 0.0
0.0011111111111111111 0.016923076923076923 0.0
0.0011111111111111111 0.01846153846153846 0.0
0.0011111111111111111 0.02 0.0
0.0011111111111111111 0.020555555555555556 0.0
0.0011111111111111111 0.021111111111111112 0.0
0.0011111111111111111 0.021666666666666667 0.0
0.0011111111111111111 0.022222222222222223 0.0
0.0011111111111111111 0.02277777777777778 0.0
0.0011111111111111111 0.023333333333333334 0.0
0.0011111111111111111 0.02388888888888889 0.0
0.0011111111111111111 0.024444444444444446 0.0
0.0011111111111111111 0.025 0.0
0.0011111111111111111 0.036111111111111115 0.0
0.0011111111111111111 0.04722222222222222 0.0
0.0011111111111111111 0.058333333333333334 0.0
0.0011111111111111111 0.06944444444444445 0.0
0.0011111111111111111 0.08055555555555556 0.0
0.0011111111111111111 0.09166666666666667 0.0
0.0011111111111111111 0.10277777777777777 0.0
0.0011111111111111111 0.1138888888888889 0.0
0.0011111111111111111 0.125 0.0
0.0011111111111111111 0.12555555555555556 0.0
0.0011111111111111111 0.12611111111111112 0.0
0.0011111111111111111 0.12666666666666668 0.0
0.0011111111111111111 0.1272222222222222 0.0
0.0011111111111111111 0.12777777777777777 0.0
0.0011111111111111111 0.12833333333333333 0.0
0.0011111111111111111 0.1288888888888889 0.0
0.0011111111111111111 0.12944444444444445 0.0
0.0011111111111111111 0.13 0.0
0.0016666666666666666 0.0 0.0
0.0016666666666666666 0.0015384615384615385 0.0
0.0016666666666666666 0.003076923076923077 0.0
0.0016666666666666666 0.004615384615384615 0.0
0.0016666666666666666 0.006153846153846154 0.0
0.0016666666666666666 0.007692307692307693 0.0
0.0016666666666666666 0.00923076923076923 0.0
0.0016666666666666666 0.010769230769230769 0.0
0.0016666666666666666 0.012307692307692308 0.0
0.0016666666666666666 0.013846153846153847 0.0
0.0016666666666666666 0.015384615384615385 0.0
0.0016666666666666666 0.016923076923076923 0.0
0.0016666666666666666 0.01846153846153846 0.0
0.0016666666666666666 0.02 0.0
0.0016666666666666666 0.020555555555555556 0.0
0.0016666666666666666 0.021111111111111112 0.0
0.0016666666666666666 0.021666666666666667 0.0
0.0016666666666666666 0.022222222222222223 0.0
0.0016666666666666666 0.02277777777777778 0.0
0.0016666666666666666 0.023333333333333334 0.0
0.0016666666666666666 0.02388888888888889 0.0
0.0016666666666666666 0.024444444444444446 0.0
0.0016666666666666666 0.025 0.0
0.0016666666666666666 0.036111111111111115 0.0
0.0016666666666666666 0.04722222222222222 0.0
0.0016666666666666666 0.058333333333333334 0.0
0.0016666666666666666 0.06944444444444445 0.0
0.0016666666666666666 0.08055555555555556 0.0
0.0016666666666666666 0.09166666666666667 0.0
0.0016666666666666666 0.10277777777777777 0.0
0.0016666666666666666 0.1138888888888889 0.0
0.0016666666666666666 0.125 0.0
0.0016666666666666666 0.12555555555555556 0.0
0.0016666666666666666 0.12611111111111112 0.0
0.0016666666666666666 0.12666666666666668 0.0
0.0016666666666666666 0.1272222222222222 0.0
0.0016666666666666666 0.12777777777777777 0.0
0.0016666666666666666 0.12833333333333333 0.0
0.0016666666666666666 0.1288888888888889 0.0
0.0016666666666666666 0.12944444444444445 0.0
0.0016666666666666666 0.13 0.0
0.0022222222222222222 0.0 0.0
0.0022222222222222222 0.0015384615384615385 0.0
0.0022222222222222222 0.003076923076923077 0.0
0.0022222222222222222 0.004615384615384615 0.0
0.0022222222222222222 0.006153846153846154 0.0
0.0022222222222222222 0.007692307692307693 0.0
0.0022222222222222222 0.00923076923076923 0.0
0.0022222222222222222 0.010769230769230769 0.0
0.0022222222222222222 0.012307692307692308 0.0
0.0022222222222222222 0.013846153846153847 0.0
0.0022222222222222222 0.015384615384615385 0.0
0.0022222222222222222 0.016923076923076923 0.0
0.0022222222222222222 0.01846153846153846 0.0
0.0022222222222222222 0.02 0.0
0.0022222222222222222 0.020555555555555556 0.0
0.0022222222222222222 0.021111111111111112 0.0
0.0022222222222222222 0.021666666666666667 0.0
0.0022222222222222222 0.022222222222222223 0.0
0.0022222222222222222 0.02277777777777778 0.0
0.0022222222222222222 0.023333333333333334 0.0
0.0022222222222222222 0.02388888888888889 0.0
0.0022222222222222222 0.024444444444444446 0.0
0.0022222222222222222 0.025 0.0
0.0022222222222222222 0.036111111111111115 0.0
0.0022222222222222222 0.04722222222222222 0.0
0.0022222222222222222 0.058333333333333334 0.0
0.0022222222222222222 0.06944444444444445 0.0
0.0022222222222222222 0.08055555555555556 0.0
0.0022222222222222222 0.09166666666666667 0.0
0.0022222222222222222 0.10277777777777777 0.0
0.0022222222222222222 0.1138888888888889 0.0
0.0022222222222222222 0.125 0.0
0.0022222222222222222 0.12555555555555556 0.0
0.0022222222222222222 0.12611111111111112 0.0
0.0022222222222222222 0.12666666666666668 0.0
0.0022222222222222222 0.1272222222222222 0.0
0.0022222222222222222 0.12777777777777777 0.0
0.0022222222222222222 0.12833333333333333 0.0
0.0022222222222222222 0.1288888888888889 0.0
0.0022222222222222222 0.12944444444444445 0.0
0.0022222222222222222 0.13 0.0
0.002777777777777778 0.0 0.0
0.002777777777777778 0.0015384615384615385 0.0
0.002777777777777778 0.003076923076923077 0.0
0.002777777777777778 0.004615384615384615 0.0
0.002777777777777778 0.006153846153846154 0.0
0.002777777777777778 0.007692307692307693 0.0
0.002777777777777778 0.00923076923076923 0.0
0.002777777777777778 0.010769230769230769 0.0
0.002777777777777778 0.012307692307692308 0.0
0.002777777777777778 0.013846153846153847 0.0
0.002777777777777778 0.015384615384615385 0.0
0.002777777777777778 0.016923076923076923 0.0
0.002777777777777778 0.01846153846153846 0.0
0.002777777777777778 0.02 0.0
0.002777777777777778 0.020555555555555556 0.0
0.002777777777777778 0.021111111111111112 0.0
0.002777777777777778 0.021666666666666667 0.0
0.002777777777777778 0.022222222222222223 0.0
0.002777777777777778 0.02277777777777778 0.0
0.002777777777777778 0.023333333333333334 0.0
0.002777777777777778 0.02388888888888889 0.0
0.002777777777777778 0.024444444444444446 0.0
0.002777777777777778 0.025 0.0
0.002777777777777778 0.036111111111111115 0.0
0.002777777777777778 0.04722222222222222 0.0
0.002777777777777778 0.058333333333333334 0.0
0.002777777777777778 0.06944444444444445 0.0
0.002777777777777778 0.08055555555555556 0.0
0.002777777777777778 0.09166666666666667 0.0
0.002777777777777778 0.10277777777777777 0.0
0.002777777777777778 0.1138888888888889 0.0
0.002777777777777778 0.125 0.0
0.002777777777777778 0.12555555555555556 0.0
0.002777777777777778 0.12611111111111112 0.0
[...]
POINT_DATA 1353
SCALARS Temperatura float 1
LOOKUP_TABLE default
127.57970493737989
127.07547610251554
126.5750765100973
126.0781009625046
125.58415459677497
125.09273999333283
124.60320978350438
124.11470348642509
123.62605993806962
123.13564410405574
122.64116482135275
122.13861458190073
121.62318136508577
121.06556541888176
120.32778378065353
119.64451782655075
118.9782384703563
118.3225552700541
117.67355474051422
117.02876806292883
116.38643645601124
115.74528733802619
115.10445427478469
103.97198439827098
99.93628973445114
98.74779383265253
98.34445600348948
98.20569751399982
98.1143231660835
97.9483580876683
97.4184759085414
95.97678880006623
95.89562768754065
95.8148462266354
95.73450212931586
95.65463434165174
95.5752689147555
95.4964234646574
95.41811003094075
95.34033657313596
95.26310755872193
127.61175360408771
127.10742254907505
126.60689454693615
126.10979690904968
125.61573549510636
125.12421639886426
124.63459550658688
124.14601887145992
123.65732937656072
123.16693011045012
122.67246018476702
122.17046759753327
121.65405082191052
121.10844858754552
120.41832836903512
119.73924246803513
119.07529915620586
118.42063783853884
117.77213592709013
117.1275396912443
116.48517831600994
115.84380638361198
115.202558441631
104.04566729391085
100.01686566633721
98.82808808557417
98.42503170117288
98.28632890324924
98.19500461532519
98.02901038068609
97.50003876449387
96.05502061629753
95.9737354081689
95.89284297272219
95.81239758758777
95.73243517553277
95.65297955992096
95.57404699868539
95.49564888338973
95.41779297162198
95.34048372268579
127.6438959109222
127.13952248221987
126.63891158234154
126.1417420125278
125.6476293636633
125.15608866312122
124.6664870194133
124.17798650345281
123.68945929478824
123.19934814167445
122.7054164462006
122.20435077410207
121.6899775267485
121.15622352777505
120.48684111364437
119.82229468394702
119.1649251069723
118.51426923138786
117.86841174615732
117.22563736637483
116.58448125659453
115.94375629427594
115.30258511954158
104.09481575863893
100.09520702079712
98.90790987118689
98.50655392282856
98.36829144989849
98.27731040196595
98.11155437887845
97.58642981325382
96.13432869868512
96.05284067811466
95.97178420887576
95.89120243035292
95.8111217226879
95.73155913518234
95.65252702813181
95.57403513080499
95.49609085308965
95.41869879734794
127.67616069266799
127.1717763889543
126.67112624040941
126.17393376964714
125.6798325575448
125.18835186361842
124.69887700244416
124.21059718648112
123.72242882799881
123.23289036454972
122.7399083175788
122.24041842278537
121.72980456943765
121.2057776942336
120.55067030937857
119.89803657673345
119.24930654545035
118.60460569612997
117.96312263399449
117.32363608266172
116.68488366452388
116.045702679991
115.40514507294957
104.1189146430578
100.17156648893706
98.98719063054239
98.58904850509843
98.45157821627443
98.36125240326535
98.19595989188389
97.67771219589338
96.21466400425332
96.13290600175694
96.05164436681075
95.97090102927676
95.89068511619297
95.8110023953256
95.73185961792205
95.65326489260501
95.57522601383296
95.49774841577211
127.70856230137151
127.20418697615713
126.70353587486119
126.20636793452263
125.71233902584434
125.22099767214286
124.7317538682989
124.24383361085896
123.75621224620474
123.26751224715639
122.7758489949225
122.2785699355407
121.77244131219365
121.25669008131418
120.61301849865993
119.97077614114053
119.33075539996476
118.69308421079876
118.05726506012344
117.42236590103298
116.78721526235884
116.15056883367977
115.51128052666947
104.11710516585745
100.24637674594484
99.06581169200008
98.67255980940958
98.53617582711966
98.44685011913523
98.28217400013159
97.77399001875906
96.29594023147041
96.21386799418353
96.13238287277952
96.05147071517757
95.9711137355615
95.89130261613948
95.8120389297695
95.73333141230633
95.65519057614198
95.57762424263083
127.74110761721312
127.2367556441465
126.73613686799489
126.23903845811674
125.7451403550917
125.25401459837217
124.7651015918705
124.27767237606697
123.79077429951936
123.30315311779417
122.81314305061322
122.31856534491334
121.81720392990474
121.30884044376423
120.67519092941738
120.04246404367449
119.41106478758908
118.78100297269498
118.15184828917245
117.52275243559767
116.89250167342051
116.25960896962167
115.62251128876616
104.08815742160682
100.32026611990032
99.14359689517109
98.75715375796737
98.62206305024836
98.53413193631286
98.37011901176963
97.87541179637246
96.37802734527668
96.29563810705544
96.21395020978726
96.13288970850677
96.05239978199387
95.97245554724321
95.89305872689253
95.81422501419223
95.73597213780398
95.65831287892429
127.77379886276864
127.26948162912895
126.76892433329857
126.27193753900279
125.7782258522683
125.2873881574223
124.79890008194104
124.3120845597295
123.82607106053754
123.3397422027736
122.85167207784443
122.36014275598544
121.86364848247437
121.36214672086544
120.73778078306067
120.11411125294126
119.49131514695672
118.86930982215664
118.24768191789134
117.62562508477528
117.00181770141818
116.3743609865172
115.74091771272285
104.03042627979025
100.39408242915309
99.22030153948042
98.84292237728944
98.70920866791114
98.62313702080806
98.4596893793617
97.98217587199477
96.4607406167183
96.37810642227434
96.29630244601024
96.21515267795465
96.13455046281346
96.0544639686121
95.97491324042868
95.89593204077958
95.81755183345649
95.7397936763805
127.80663490433348
127.3023619192461
126.80189187821485
126.30505565592078
125.81158265802428
125.32110108567635
124.83312560960397
124.3470363162384
123.86205178830932
123.37720005685044
122.8913024806525
122.40305748999226
121.91146032278328
121.41651522606254
120.80105289251657
120.18622752573562
119.57209703310895
118.95854721712821
118.34522508536432
117.73144874535848
117.11602962183213
116.49651941287438
115.8692873959592
103.94178252328184
100.46892765870018
99.29559670593898
98.92999021488089
98.7975684665282
98.71391799980194
98.55074724104126
98.09453878913395
96.54382200641247
96.4611569537792
96.37943101819425
96.29830781305354
96.21759932485831
96.13734018725376
96.05759570831538
95.97843184045614
95.89990076908155
95.82203504323458
127.83961195761312
127.33539138671969
126.83503150115246
126.33838160169483
125.8451958821784
125.35513359632695
124.86775125363052
124.38248967480149
123.89866053418926
123.41544062556487
122.93189465675667
122.44708904815948
121.96039341426423
121.47183303741664
120.86508835281205
120.2590252091379
119.65365511025227
119.04889115803218
118.4445092535845
117.84009490643096
117.23491446892758
116.62776442273696
116.01137244424511
103.81950514814086
100.54620797325896
99.36904740937914
99.01852319523215
98.88708110292974
98.80654460441045
98.64311633694733
98.21282713664297
96.62691265421131
96.54460874656795
96.46355303008333
96.38247744217423
96.3016095330425
96.22110193993612
96.14109268801451
96.06169101827109
95.9829745207498
95.90498906374017
127.8727240365006
127.36856297329
126.86833358832952
126.37190253765725
125.87904875704034
125.38946365747613
124.90274737570638
124.41840339860794
123.93583761915384
123.45437389233179
122.97330898719676
122.49203757735314
122.01023771004616
121.52796962003292
120.92985807213277
120.33253237170159
119.7359982927178
119.14023088162442
118.54517602121977
117.95077046890889
117.3569968701229
116.76400341803748
102.62420110983078
102.62420110983078
102.62420110983078
102.62420110983078
102.62420110983078
102.62420110983078
102.62420110983078
102.62420110983078
102.62420110983078
102.62420110983078
96.62978356355795
96.54903148712134
96.4678486320283
96.38665621636913
96.30575825316475
96.22537311185643
96.14565484526447
96.06670590333628
95.98858471141344
128.51675666575122
128.014359021748
127.51843063628779
127.02905362723715
126.54636910238318
126.07059069538293
125.60202605943158
125.14110766152734
124.68843414573485
124.24482283416
123.81137168639573
123.38952693148586
122.9811627123987
122.58871757610945
122.11469042425357
121.64455339485066
121.17896018016977
120.7186076500181
120.26424428450062
119.81667456031893
119.37675486912745
118.94537275653472
102.62420110983078
102.62420110983078
102.62420110983078
102.62420110983078
102.62420110983078
102.62420110983078
102.62420110983078
102.62420110983078
102.62420110983078
102.62420110983078
98.25260631281911
98.13169289221604
98.01717843437588
97.90867706927583
97.80588588098662
97.70857091164989
97.61655725419855
97.52972256669982
97.44799292477964
129.09984653979848
128.5986073457714
128.10518536040698
127.61963582427865
127.1420455953003
126.67253093728579
126.21123302063474
125.75830981984572
125.31392253193718
124.87821403325552
124.45127645000197
124.0331041817711
123.62352429323099
123.22208278146644
122.72961719743198
122.23869711719313
121.7490991007636
121.26057060280024
120.77282171738267
120.28551730070713
119.79827053130866
119.31064003759695
102.62420110983078
102.62420110983078
102.62420110983078
102.62420110983078
102.62420110983078
102.62420110983078
102.62420110983078
102.62420110983078
102.62420110983078
102.62420110983078
98.6989521254484
98.6059876667412
98.51435125119461
98.42424506160395
98.33582717348119
98.24921856115371
98.16450824500353
98.0817568713423
98.00099909293728
129.56034610822948
129.05943009118894
128.5662025613762
128.0806706172857
127.60284059809238
127.13271632079085
126.67029688202362
126.21557435389018
125.76853196390029
125.32914373348235
124.8973770550373
124.4732005067039
124.05660138849711
123.64762285358881
123.14592124491381
122.6460714705359
122.14812519005004
121.65214556889478
121.15821137789416
120.66642134966318
120.17689859769234
119.68979461185207
102.62420110983078
102.62420110983078
102.62420110983078
102.62420110983078
102.62420110983078
102.62420110983078
102.62420110983078
102.62420110983078
102.62420110983078
102.62420110983078
98.86316844996023
98.76984863619653
98.67844855029217
98.58890423771264
98.501167121022
98.4152008299642
98.3309788477126
98.24848284212838
98.16770154590245
129.89477462299274
129.3939398935981
128.90040288798266
128.41416520722808
127.93522563778716
127.4635803572882
126.99922325742568
126.54214639499251
126.09234052627198
125.64979556751346
125.21450063284561
124.78644294275338
124.3656040171926
123.95194949717738
123.44405223719409
122.93786567488239
122.43337094058502
121.93054509856113
121.42935953404546
120.92977813375244
120.43175527005015
119.93523367451863
102.62420110983078
102.62420110983078
102.62420110983078
102.62420110983078
102.62420110983078
102.62420110983078
102.62420110983078
102.62420110983078
102.62420110983078
102.62420110983078
98.9132571189935
98.82204755016059
98.73229203609367
98.64401230678439
98.55722420511766
98.47193894827238
98.38816406064906
98.30590403575081
98.2251607793392
130.11950762099062
129.61871502107925
129.12493402774209
128.6381666257236
128.15841225679424
127.68566778745453
127.2199274426694
126.76118268618018
126.30942203405408
125.86463080985425
125.4267908989063
124.99588067096957
124.57187553672935
124.15475033003375
123.64235839340452
123.13165843242852
122.62264939421534
122.11533143179129
121.60970647323646
121.105778894471
120.60355630966507
120.10305047536447
102.62420110983078
102.62420110983078
102.62420110983078
102.62420110983078
102.62420110983078
102.62420110983078
102.62420110983078
102.62420110983078
102.62420110983078
102.62420110983078
98.93040290861076
98.83935725823348
98.74980017469031
98.661724199922
98.57512365024725
98.4899941440956
98.40633225592141
98.32413527214891
98.24340102891122
130.24872979320253
129.74795980141064
129.25403355585473
128.76695296351414
128.2867174415886
127.81332391729657
127.34676683554432
126.88703818273011
126.4341275366451
125.98802215120195
125.54870707626048
125.11616528400475
124.69037768076434
124.27132263209292
123.75643454968778
123.24321704042003
122.73166551938738
122.22177495104854
121.71353964929638
121.2069530301119
120.70200730580238
120.19869311346822
102.62420110983078
102.62420110983078
102.62420110983078
102.62420110983078
102.62420110983078
102.62420110983078
102.62420110983078
102.62420110983078
102.62420110983078
102.62420110983078
98.93568570209632
98.84481627749793
98.75539495969464
98.66742267140707
98.58089964590741
98.49582560569864
98.41219989151091
98.33002155217659
98.24928940373253
130.2908780923741
129.79011524001544
129.29614094457193
128.80895718252296
128.3285635261261
127.8549571526948
127.38813285563218
126.92808305316852
126.47479778872682
126.02826471531843
125.58846905756111
125.15539355617612
124.72901844604465
124.30932165762167
123.79360091576447
123.27954489261066
122.76715017846006
122.25641352673254
121.74733196869255
121.23990295947735
120.734124564127
120.22999569128045
102.62420110983078
102.62420110983078
102.62420110983078
102.62420110983078
102.62420110983078
102.62420110983078
102.62420110983078
102.62420110983078
102.62420110983078
102.62420110983078
98.9369232534664
98.84606579718029
98.75666083413499
98.66870601191269
98.58219930513522
98.49713890755021
98.41352315495409
98.33135047198569
98.25061933744351
130.24872979320332
129.74795980141144
129.25403355585544
128.76695296351483
128.28671744158916
127.81332391729703
127.34676683554477
126.88703818273062
126.43412753664563
125.9880221512025
125.54870707626105
125.11616528400542
124.69037768076502
124.27132263209361
123.75643454968852
123.24321704042073
122.73166551938807
122.22177495104918
121.71353964929702
121.20695303011252
120.702007305803
120.19869311346888
102.62420110983078
102.62420110983078
102.62420110983078
102.62420110983078
102.62420110983078
102.62420110983078
102.62420110983078
102.62420110983078
102.62420110983078
102.62420110983078
98.93568570209723
98.84481627749888
98.7553949596956
98.66742267140802
98.58089964590837
98.49582560569966
98.41219989151193
98.33002155217761
98.24928940373354
130.11950762099175
129.6187150210804
129.12493402774322
128.6381666257247
128.15841225679532
127.6856677874556
127.21992744267041
126.7611826861812
126.30942203405509
125.86463080985527
125.42679089890731
124.99588067097056
124.57187553673036
124.15475033003482
123.64235839340563
123.13165843242962
122.62264939421642
122.11533143179234
121.6097064732375
121.10577889447205
120.60355630966615
120.1030504753655
102.62420110983078
102.62420110983078
102.62420110983078
102.62420110983078
102.62420110983078
102.62420110983078
102.62420110983078
102.62420110983078
102.62420110983078
102.62420110983078
98.930402908613
98.83935725823575
98.74980017469262
98.66172419992438
98.57512365024964
98.48999414409798
98.40633225592383
98.32413527215135
98.24340102891367
129.8947746229936
129.39393989359888
128.9004028879834
128.4141652072288
127.93522563778785
127.46358035728888
126.99922325742634
126.54214639499311
126.09234052627254
125.64979556751406
125.2145006328463
124.78644294275408
124.36560401719335
123.95194949717813
123.44405223719487
122.93786567488317
122.43337094058577
121.93054509856182
121.42935953404603
120.92977813375286
120.4317552700505
119.93523367451894
102.62420110983078
102.62420110983078
102.62420110983078
102.62420110983078
102.62420110983078
102.62420110983078
102.62420110983078
102.62420110983078
102.62420110983078
102.62420110983078
98.9132571189993
98.82204755016656
98.73229203609975
98.64401230679047
98.5572242051237
98.47193894827836
98.3881640606549
98.30590403575651
98.22516077934485
129.56034610823005
129.05943009118957
128.56620256137688
128.08067061728647
127.60284059809318
127.13271632079163
126.67029688202442
126.21557435389093
125.76853196390108
125.32914373348314
124.897377055038
124.4732005067046
124.05660138849775
123.64762285358943
123.14592124491445
122.64607147053644
122.1481251900506
121.65214556889542
121.15821137789493
120.66642134966402
120.17689859769317
119.68979461185288
102.62420110983078
102.62420110983078
102.62420110983078
102.62420110983078
102.62420110983078
102.62420110983078
102.62420110983078
102.62420110983078
102.62420110983078
102.62420110983078
98.86316844996489
98.76984863620127
98.67844855029699
98.58890423771754
98.501167121027
98.41520082996928
98.33097884771774
98.24848284213361
98.1677015459077
129.09984653979814
128.59860734577103
128.10518536040655
127.61963582427813
127.14204559529978
126.67253093728532
126.21123302063428
125.7583098198453
125.31392253193677
124.8782140332552
124.45127645000177
124.03310418177094
123.62352429323082
123.2220827814663
122.72961719743185
122.23869711719304
121.74909910076353
121.26057060280016
120.77282171738254
120.28551730070696
119.79827053130845
119.31064003759668
102.62420110983078
102.62420110983078
102.62420110983078
102.62420110983078
102.62420110983078
102.62420110983078
102.62420110983078
102.62420110983078
102.62420110983078
102.62420110983078
98.69895212545201
98.60598766674485
98.51435125119828
98.42424506160759
98.33582717348482
98.24921856115733
98.1645082450071
98.0817568713458
98.00099909294077
128.51675666575028
128.01435902174708
127.51843063628688
127.02905362723627
126.54636910238229
126.07059069538205
125.6020260594308
125.14110766152655
124.68843414573408
124.2448228341593
123.81137168639513
123.38952693148538
122.98116271239824
122.58871757610908
122.1146904242533
121.64455339485039
121.17896018016951
120.71860765001783
120.26424428450038
119.81667456031865
119.37675486912713
118.94537275653438
102.62420110983078
102.62420110983078
102.62420110983078
102.62420110983078
102.62420110983078
102.62420110983078
102.62420110983078
102.62420110983078
102.62420110983078
102.62420110983078
98.25260631282146
98.13169289221842
98.01717843437835
97.90867706927838
97.8058858809892
97.70857091165249
97.61655725420118
97.52972256670249
97.4479929247823
127.8727240364993
127.3685629732887
126.86833358832838
126.37190253765633
125.87904875703966
125.38946365747559
124.90274737570584
124.41840339860742
123.93583761915335
123.45437389233129
122.97330898719625
122.49203757735259
122.01023771004574
121.52796962003258
120.92985807213257
120.3325323717016
119.735998292718
119.14023088162487
118.54517602122037
117.9507704689096
117.35699687012375
116.76400341803839
102.62420110983078
102.62420110983078
102.62420110983078
102.62420110983078
102.62420110983078
102.62420110983078
102.62420110983078
102.62420110983078
102.62420110983078
102.62420110983078
96.6297835635606
96.54903148712405
96.46784863203104
96.38665621637189
96.3057582531676
96.22537311185927
96.14565484526729
96.06670590333904
95.98858471141622
127.83961195761175
127.3353913867183
126.83503150115133
126.33838160169398
125.84519588217773
125.35513359632641
124.86775125362999
124.382489674801
123.89866053418872
123.41544062556443
122.93189465675603
122.44708904815897
121.96039341426378
121.47183303741635
120.86508835281185
120.2590252091379
119.65365511025253
119.04889115803257
118.4445092535851
117.84009490643167
117.23491446892835
116.62776442273791
116.01137244424618
103.81950514814338
100.54620797325853
99.36904740937902
99.01852319523388
98.88708110293055
98.8065446044113
98.64311633694824
98.21282713664151
96.62691265421377
96.54460874657056
96.463553030086
96.38247744217695
96.30160953304522
96.22110193993886
96.14109268801722
96.06169101827379
95.98297452075246
95.90498906374282
127.806634904332
127.30236191924465
126.8018918782137
126.30505565591987
125.81158265802365
125.32110108567572
124.8331256096035
124.34703631623789
123.86205178830883
123.37720005684994
122.8913024806519
122.40305748999174
121.91146032278284
121.41651522606233
120.80105289251651
120.18622752573567
119.57209703310917
118.95854721712861
118.34522508536492
117.73144874535919
117.11602962183295
116.49651941287537
115.86928739596034
103.94178252328446
100.46892765869985
99.29559670593908
98.92999021488265
98.79756846652906
98.71391799980277
98.55074724104227
98.09453878913249
96.54382200641496
96.46115695378181
96.37943101819695
96.29830781305623
96.21759932486096
96.13734018725644
96.05759570831803
95.97843184045868
95.89990076908413
95.82203504323715
127.77379886276717
127.26948162912753
126.76892433329733
126.27193753900194
125.77822585226774
125.28738815742167
124.79890008194057
124.31208455972897