# vtk DataFile Version 2.0
Niestacjonarne zagadnienie cieplne - ogrzewanie wody w garnku stalowym
ASCII
DATASET UNSTRUCTURED_GRID
POINTS 1353 float
0.0 0.0 0.0
0.0 0.0015384615384615385 0.0
0.0 0.003076923076923077 0.0
0.0 0.004615384615384615 0.0
0.0 0.006153846153846154 0.0
0.0 0.007692307692307693 0.0
0.0 0.00923076923076923 0.0
0.0 0.010769230769230769 0.0
0.0 0.012307692307692308 0.0
0.0 0.013846153846153847 0.0
0.0 0.015384615384615385 0.0
0.0 0.016923076923076923 0.0
0.0 0.01846153846153846 0.0
0.0 0.02 0.0
0.0 0.020555555555555556 0.0
0.0 0.021111111111111112 0.0
0.0 0.021666666666666667 0.0
0.0 0.022222222222222223 0.0
0.0 0.02277777777777778 0.0
0.0 0.023333333333333334 0.0
0.0 0.02388888888888889 0.0
0.0 0.024444444444444446 0.0
0.0 0.025 0.0
0.0 0.036111111111111115 0.0
0.0 0.04722222222222222 0.0
0.0 0.058333333333333334 0.0
0.0 0.06944444444444445 0.0
0.0 0.08055555555555556 0.0
0.0 0.09166666666666667 0.0
0.0 0.10277777777777777 0.0
0.0 0.1138888888888889 0.0
0.0 0.125 0.0
0.0 0.12555555555555556 0.0
0.0 0.12611111111111112 0.0
0.0 0.12666666666666668 0.0
0.0 0.1272222222222222 0.0
0.0 0.12777777777777777 0.0
0.0 0.12833333333333333 0.0
0.0 0.1288888888888889 0.0
0.0 0.12944444444444445 0.0
0.0 0.13 0.0
5.555555555555556E-4 0.0 0.0
5.555555555555556E-4 0.0015384615384615385 0.0
5.555555555555556E-4 0.003076923076923077 0.0
5.555555555555556E-4 0.004615384615384615 0.0
5.555555555555556E-4 0.006153846153846154 0.0
5.555555555555556E-4 0.007692307692307693 0.0
5.555555555555556E-4 0.00923076923076923 0.0
5.555555555555556E-4 0.010769230769230769 0.0
5.555555555555556E-4 0.012307692307692308 0.0
5.555555555555556E-4 0.013846153846153847 0.0
5.555555555555556E-4 0.015384615384615385 0.0
5.555555555555556E-4 0.016923076923076923 0.0
5.555555555555556E-4 0.01846153846153846 0.0
5.555555555555556E-4 0.02 0.0
5.555555555555556E-4 0.020555555555555556 0.0
5.555555555555556E-4 0.021111111111111112 0.0
5.555555555555556E-4 0.021666666666666667 0.0
5.555555555555556E-4 0.022222222222222223 0.0
5.555555555555556E-4 0.02277777777777778 0.0
5.555555555555556E-4 0.023333333333333334 0.0
5.555555555555556E-4 0.02388888888888889 0.0
5.555555555555556E-4 0.024444444444444446 0.0
5.555555555555556E-4 0.025 0.0
5.555555555555556E-4 0.036111111111111115 0.0
5.555555555555556E-4 0.04722222222222222 0.0
5.555555555555556E-4 0.058333333333333334 0.0
5.555555555555556E-4 0.06944444444444445 0.0
5.555555555555556E-4 0.08055555555555556 0.0
5.555555555555556E-4 0.09166666666666667 0.0
5.555555555555556E-4 0.10277777777777777 0.0
5.555555555555556E-4 0.1138888888888889 0.0
5.555555555555556E-4 0.125 0.0
5.555555555555556E-4 0.12555555555555556 0.0
5.555555555555556E-4 0.12611111111111112 0.0
5.555555555555556E-4 0.12666666666666668 0.0
5.555555555555556E-4 0.1272222222222222 0.0
5.555555555555556E-4 0.12777777777777777 0.0
5.555555555555556E-4 0.12833333333333333 0.0
5.555555555555556E-4 0.1288888888888889 0.0
5.555555555555556E-4 0.12944444444444445 0.0
5.555555555555556E-4 0.13 0.0
0.0011111111111111111 0.0 0.0
0.0011111111111111111 0.0015384615384615385 0.0
0.0011111111111111111 0.003076923076923077 0.0
0.0011111111111111111 0.004615384615384615 0.0
0.0011111111111111111 0.006153846153846154 0.0
0.0011111111111111111 0.007692307692307693 0.0
0.0011111111111111111 0.00923076923076923 0.0
0.0011111111111111111 0.010769230769230769 0.0
0.0011111111111111111 0.012307692307692308 0.0
0.0011111111111111111 0.013846153846153847 0.0
0.0011111111111111111 0.015384615384615385 0.0
0.0011111111111111111 0.016923076923076923 0.0
0.0011111111111111111 0.01846153846153846 0.0
0.0011111111111111111 0.02 0.0
0.0011111111111111111 0.020555555555555556 0.0
0.0011111111111111111 0.021111111111111112 0.0
0.0011111111111111111 0.021666666666666667 0.0
0.0011111111111111111 0.022222222222222223 0.0
0.0011111111111111111 0.02277777777777778 0.0
0.0011111111111111111 0.023333333333333334 0.0
0.0011111111111111111 0.02388888888888889 0.0
0.0011111111111111111 0.024444444444444446 0.0
0.0011111111111111111 0.025 0.0
0.0011111111111111111 0.036111111111111115 0.0
0.0011111111111111111 0.04722222222222222 0.0
0.0011111111111111111 0.058333333333333334 0.0
0.0011111111111111111 0.06944444444444445 0.0
0.0011111111111111111 0.08055555555555556 0.0
0.0011111111111111111 0.09166666666666667 0.0
0.0011111111111111111 0.10277777777777777 0.0
0.0011111111111111111 0.1138888888888889 0.0
0.0011111111111111111 0.125 0.0
0.0011111111111111111 0.12555555555555556 0.0
0.0011111111111111111 0.12611111111111112 0.0
0.0011111111111111111 0.12666666666666668 0.0
0.0011111111111111111 0.1272222222222222 0.0
0.0011111111111111111 0.12777777777777777 0.0
0.0011111111111111111 0.12833333333333333 0.0
0.0011111111111111111 0.1288888888888889 0.0
0.0011111111111111111 0.12944444444444445 0.0
0.0011111111111111111 0.13 0.0
0.0016666666666666666 0.0 0.0
0.0016666666666666666 0.0015384615384615385 0.0
0.0016666666666666666 0.003076923076923077 0.0
0.0016666666666666666 0.004615384615384615 0.0
0.0016666666666666666 0.006153846153846154 0.0
0.0016666666666666666 0.007692307692307693 0.0
0.0016666666666666666 0.00923076923076923 0.0
0.0016666666666666666 0.010769230769230769 0.0
0.0016666666666666666 0.012307692307692308 0.0
0.0016666666666666666 0.013846153846153847 0.0
0.0016666666666666666 0.015384615384615385 0.0
0.0016666666666666666 0.016923076923076923 0.0
0.0016666666666666666 0.01846153846153846 0.0
0.0016666666666666666 0.02 0.0
0.0016666666666666666 0.020555555555555556 0.0
0.0016666666666666666 0.021111111111111112 0.0
0.0016666666666666666 0.021666666666666667 0.0
0.0016666666666666666 0.022222222222222223 0.0
0.0016666666666666666 0.02277777777777778 0.0
0.0016666666666666666 0.023333333333333334 0.0
0.0016666666666666666 0.02388888888888889 0.0
0.0016666666666666666 0.024444444444444446 0.0
0.0016666666666666666 0.025 0.0
0.0016666666666666666 0.036111111111111115 0.0
0.0016666666666666666 0.04722222222222222 0.0
0.0016666666666666666 0.058333333333333334 0.0
0.0016666666666666666 0.06944444444444445 0.0
0.0016666666666666666 0.08055555555555556 0.0
0.0016666666666666666 0.09166666666666667 0.0
0.0016666666666666666 0.10277777777777777 0.0
0.0016666666666666666 0.1138888888888889 0.0
0.0016666666666666666 0.125 0.0
0.0016666666666666666 0.12555555555555556 0.0
0.0016666666666666666 0.12611111111111112 0.0
0.0016666666666666666 0.12666666666666668 0.0
0.0016666666666666666 0.1272222222222222 0.0
0.0016666666666666666 0.12777777777777777 0.0
0.0016666666666666666 0.12833333333333333 0.0
0.0016666666666666666 0.1288888888888889 0.0
0.0016666666666666666 0.12944444444444445 0.0
0.0016666666666666666 0.13 0.0
0.0022222222222222222 0.0 0.0
0.0022222222222222222 0.0015384615384615385 0.0
0.0022222222222222222 0.003076923076923077 0.0
0.0022222222222222222 0.004615384615384615 0.0
0.0022222222222222222 0.006153846153846154 0.0
0.0022222222222222222 0.007692307692307693 0.0
0.0022222222222222222 0.00923076923076923 0.0
0.0022222222222222222 0.010769230769230769 0.0
0.0022222222222222222 0.012307692307692308 0.0
0.0022222222222222222 0.013846153846153847 0.0
0.0022222222222222222 0.015384615384615385 0.0
0.0022222222222222222 0.016923076923076923 0.0
0.0022222222222222222 0.01846153846153846 0.0
0.0022222222222222222 0.02 0.0
0.0022222222222222222 0.020555555555555556 0.0
0.0022222222222222222 0.021111111111111112 0.0
0.0022222222222222222 0.021666666666666667 0.0
0.0022222222222222222 0.022222222222222223 0.0
0.0022222222222222222 0.02277777777777778 0.0
0.0022222222222222222 0.023333333333333334 0.0
0.0022222222222222222 0.02388888888888889 0.0
0.0022222222222222222 0.024444444444444446 0.0
0.0022222222222222222 0.025 0.0
0.0022222222222222222 0.036111111111111115 0.0
0.0022222222222222222 0.04722222222222222 0.0
0.0022222222222222222 0.058333333333333334 0.0
0.0022222222222222222 0.06944444444444445 0.0
0.0022222222222222222 0.08055555555555556 0.0
0.0022222222222222222 0.09166666666666667 0.0
0.0022222222222222222 0.10277777777777777 0.0
0.0022222222222222222 0.1138888888888889 0.0
0.0022222222222222222 0.125 0.0
0.0022222222222222222 0.12555555555555556 0.0
0.0022222222222222222 0.12611111111111112 0.0
0.0022222222222222222 0.12666666666666668 0.0
0.0022222222222222222 0.1272222222222222 0.0
0.0022222222222222222 0.12777777777777777 0.0
0.0022222222222222222 0.12833333333333333 0.0
0.0022222222222222222 0.1288888888888889 0.0
0.0022222222222222222 0.12944444444444445 0.0
0.0022222222222222222 0.13 0.0
0.002777777777777778 0.0 0.0
0.002777777777777778 0.0015384615384615385 0.0
0.002777777777777778 0.003076923076923077 0.0
0.002777777777777778 0.004615384615384615 0.0
0.002777777777777778 0.006153846153846154 0.0
0.002777777777777778 0.007692307692307693 0.0
0.002777777777777778 0.00923076923076923 0.0
0.002777777777777778 0.010769230769230769 0.0
0.002777777777777778 0.012307692307692308 0.0
0.002777777777777778 0.013846153846153847 0.0
0.002777777777777778 0.015384615384615385 0.0
0.002777777777777778 0.016923076923076923 0.0
0.002777777777777778 0.01846153846153846 0.0
0.002777777777777778 0.02 0.0
0.002777777777777778 0.020555555555555556 0.0
0.002777777777777778 0.021111111111111112 0.0
0.002777777777777778 0.021666666666666667 0.0
0.002777777777777778 0.022222222222222223 0.0
0.002777777777777778 0.02277777777777778 0.0
0.002777777777777778 0.023333333333333334 0.0
0.002777777777777778 0.02388888888888889 0.0
0.002777777777777778 0.024444444444444446 0.0
0.002777777777777778 0.025 0.0
0.002777777777777778 0.036111111111111115 0.0
0.002777777777777778 0.04722222222222222 0.0
0.002777777777777778 0.058333333333333334 0.0
0.002777777777777778 0.06944444444444445 0.0
0.002777777777777778 0.08055555555555556 0.0
0.002777777777777778 0.09166666666666667 0.0
0.002777777777777778 0.10277777777777777 0.0
0.002777777777777778 0.1138888888888889 0.0
0.002777777777777778 0.125 0.0
0.002777777777777778 0.12555555555555556 0.0
0.002777777777777778 0.12611111111111112 0.0
[...]
POINT_DATA 1353
SCALARS Temperatura float 1
LOOKUP_TABLE default
88.74105680176643
88.20568822876584
87.67590060042177
87.15132241595127
86.63161697524357
86.11637458824946
85.60507379472001
85.09703328137519
84.59134811586877
84.08677079749755
83.58158256197994
83.07292091736625
82.55730921632936
82.0161323465088
81.31672631782959
80.65109144926207
79.99598334051672
79.34727310949874
78.70235972623405
78.05954505059142
77.41759719842258
76.7756328546923
76.1330920577259
64.89974880491344
60.82139079382154
59.62199812243527
59.21679507405284
59.08372085423962
59.01423696406263
58.91463836130824
58.60952819968737
57.7877270487665
57.743230192645235
57.699268368967445
57.65591932623355
57.61324831524888
57.57130917975372
57.530145202226876
57.489789630789154
57.45026592515296
57.41158782107929
88.76154800658065
88.22606727131014
87.69614040827399
87.17142826621016
86.65159457210963
86.13623261346282
85.62482341181851
85.11669026312796
84.6109314704402
84.10632391034055
83.60110745673822
83.09276185216312
82.57653203190009
82.04270648479098
81.37240740201231
80.7091912751312
80.0553689849617
79.40713503289209
78.76236933189307
78.11949846424888
77.47733434086093
76.83499778122444
76.19191596621948
64.93354935134003
60.862216739057004
59.66252850137985
59.25761062124539
59.12458937130299
59.055141232667104
58.955523477773454
58.65096499702003
57.82708873909386
57.782499935385054
57.73845356639063
57.695026838392714
57.652284486612714
57.61027997540232
57.569056377035444
57.52864686999847
57.48907492545421
57.450354311504135
88.78213634494809
88.24660195183382
87.71657722874114
87.19177402405988
86.67186486556679
86.1564504091561
85.64502019976553
85.13690921672533
84.63123609408179
84.12680517712576
83.62193682087181
83.11420123785294
82.59929647180337
82.07282224865837
81.41531744941597
80.76108746931443
80.11136130660181
79.46564088831857
78.8225345970133
78.18077823909674
77.53927941311066
76.89715586676508
76.25378482424411
64.94295399733822
60.90129853892525
59.70307068578968
59.299868390753936
59.16726804271454
59.09807395067292
58.99859392958078
58.69633333305651
57.867891814983984
57.823118662235494
57.77890918951252
57.73533862930851
57.692469922778116
57.6503552600741
57.609037035770335
57.56854822216347
57.528912343284
57.490143279588324
88.80285117210154
88.26729329733438
87.73721028814556
87.2123579028026
86.69242513135082
86.17702426829875
85.66565874421906
85.15768327636098
84.65224756403546
84.14820762072648
83.64399091429097
83.13732998234188
82.62488815289817
82.10458235956948
81.45610476897984
80.8094572787375
80.16530943100129
79.52351709226767
78.8833475828409
78.24380597562534
77.60387187428157
76.96260846841723
76.31927016704037
64.92744991169951
60.93889096800316
59.743556106664215
59.343594709142764
59.21175156554989
59.143044096601024
59.043832680025766
58.74567160037108
57.91011499624359
57.86506692122438
57.820617966722544
57.776839340017766
57.733790555080425
57.69152158595131
57.65007385303595
57.609480236450246
57.569764570061366
57.53094105922953
88.82370770137135
88.28814490859459
87.75803793607928
87.23317684479126
86.71327082675069
86.19794791635869
85.68673037900004
85.17899976484274
84.67394737118
84.17050028698344
83.66721166563137
83.1620798427763
82.65263154402795
82.13772660083627
81.49672957885632
80.85693829449724
80.21863215568222
79.58166249376315
78.94546937023885
78.30919288628608
77.67179471804458
77.0321804663903
76.38935175447284
64.88618127440853
60.97543006735094
59.783865680153916
59.388834408077855
59.258029052900014
59.190065808736236
59.09120911798232
58.799042092415775
57.95372058865963
57.90831101402555
57.863550646265544
57.81950335706668
57.776222973671096
57.73375635628909
57.69214414296121
57.651419782346885
57.61160807981785
57.572723987634284
88.84471400709943
88.30915942480797
87.77905793385574
87.254226441937
86.73439561882896
86.2192126680538
85.708223095808
85.20084145596607
84.69631009435106
84.1936409055847
83.69153377122643
83.18829463266488
82.68209660862533
82.17216923498657
81.53797613216717
80.9047083261639
80.27241467250748
79.64087537777877
79.00955987310337
78.37761932953411
77.74390020894936
77.1070046995792
76.46546843446959
64.81792076560217
61.01154910632845
59.823822345079094
59.43565384196061
59.30608275706982
59.239159247206
59.14067794313556
58.85653252207465
57.998652438230124
57.95280264250889
57.907667038993125
57.86329654634225
57.819735955470726
57.77702873689377
57.735216128819175
57.69433393761451
57.65440912650864
57.61545804648841
88.86587382782051
88.33033765406654
87.80026714168126
87.27550096517113
86.75579143032596
86.24080754168375
85.73012179163243
85.22318695283208
84.7193039613167
84.21757964486038
83.71687599198033
83.21580221338567
82.7129959995839
82.20783920047762
81.5801780992779
80.9533492047693
80.32727802294613
79.70170317741433
79.0761131379044
78.44967340322572
77.8210816414408
77.18848563424959
76.54960642936163
64.72102434922489
61.048102756278965
59.86317990907218
59.484145395922134
59.355886159210215
59.290351872983855
59.192177525989635
58.9182583053954
58.04483262005436
57.99847861276598
57.95291886014053
57.90817986774974
57.86429344157528
57.82130063397366
57.77924898597685
57.73817958022043
57.69812314746989
57.65909821513246
88.88718785376103
88.35167847440407
87.82166126252284
87.29699337007345
86.77744851005703
86.2627194053272
85.75240855658427
85.24601109268168
84.74289204584993
84.24226006424075
83.7431460418845
83.24443854363334
82.74511743327328
82.24465030009813
81.62345302894096
81.0031118862429
80.38350644852399
79.76438854493296
79.14532331628541
78.52559663386096
77.90402827836303
77.27818083763273
76.64445119094995
64.59336136789655
61.08620210887353
59.90160726188906
59.534433840189955
59.407401278498725
59.34368022937622
59.2456276400188
58.984365831443874
58.092156226635794
58.04526149701705
57.99925373777264
57.95412169897715
57.90985700056288
57.86652696170675
57.82419220495304
57.78290246259806
57.7426937601783
57.70358745545935
88.90865441620774
88.37317894829059
87.84323471709409
87.31869529963377
86.79935552037367
86.28493315088325
85.77506297731868
85.26928548146486
84.76703331696348
84.2676204720206
83.77024634815922
83.2740521176791
82.77828696445869
82.2824975718421
81.66779195084911
81.05404151642765
80.44113312672539
79.82888322109694
79.21700583851238
78.60506134677483
77.99232575599521
77.37766152525838
76.75364772769032
64.43220635676066
61.1272649131802
59.938666447402746
59.586685076682464
59.46057500072916
59.39919227543115
59.30092669664466
59.0550360044816
58.14048717943855
58.092989638803765
58.04669666164559
58.00109930740342
57.956385595501025
57.912653949872364
57.86998383308264
57.82843561213779
57.78805131570942
57.74885532393735
88.93026991778858
88.39483448815261
87.86498061607371
87.34059710444521
86.82149963825039
86.3074318857351
85.79806246368817
85.29297907267684
84.79168361917988
84.2935956557413
83.79807787885406
83.30450206327947
82.8123496445006
82.32125988503583
81.71310775932326
81.1060520913777
80.50001540550771
79.89490657698661
79.29062829186466
78.687101661384
78.08432499253334
77.48249587948787
62.01319878214367
62.01319878214367
62.01319878214367
62.01319878214367
62.01319878214367
62.01319878214367
62.01319878214367
62.01319878214367
62.01319878214367
62.01319878214367
58.142202131473304
58.095274213492566
58.04909277245366
58.003829198743986
57.959614909106
57.91654745257751
57.87469710759497
57.83411111838069
57.794816334194024
89.36015169892697
88.82603703274783
88.29949620953096
87.78059418940674
87.26944095210563
86.76620201421746
86.27111544686241
85.78451659218295
85.30687181847358
84.83882258413132
84.38124019196732
83.93529096433298
83.50251852922985
83.08497391303787
82.57924350786155
82.07744267770069
81.58012789697395
81.08788991559788
80.60135954407315
80.12120948137154
79.64814757040487
79.18289334787497
62.01319878214367
62.01319878214367
62.01319878214367
62.01319878214367
62.01319878214367
62.01319878214367
62.01319878214367
62.01319878214367
62.01319878214367
62.01319878214367
59.079407672579784
59.007165678664336
58.93976891424115
58.87700169351284
58.818690163448636
58.76469768019105
58.71492072837031
58.66928606180589
58.627748798652455
89.7588173154317
89.22559917453815
88.7010853756976
88.18532205179686
87.67838074996136
87.18035688345721
86.69136641515581
86.2115397163025
85.74101103765011
85.27990139069999
84.82829196633473
84.38618417125082
83.95343878278001
83.52967736642248
83.01030612185323
82.49292235707613
81.97733873949818
81.46334400296927
80.95069633646563
80.43911726413997
79.92828716328961
79.41784456726027
62.01319878214367
62.01319878214367
62.01319878214367
62.01319878214367
62.01319878214367
62.01319878214367
62.01319878214367
62.01319878214367
62.01319878214367
62.01319878214367
59.33339091087392
59.277681080146095
59.22384045195771
59.17198455080655
59.12220468910757
59.074571090053155
59.029135440808766
58.985932746103195
58.944982591913586
90.07574400484502
89.54277321247692
89.01846647998134
88.502832017603
87.99587771507434
87.49760970198224
87.00803054097582
86.52713730459551
86.05492000632222
85.59136120325124
85.13643808720636
84.69012920041526
84.25242976831139
83.82338374513235
83.2976296928152
82.77413861165775
82.25295585480998
81.73413634909858
81.2177479605026
80.70387502309602
80.19262179563245
79.68411533391486
62.01319878214367
62.01319878214367
62.01319878214367
62.01319878214367
62.01319878214367
62.01319878214367
62.01319878214367
62.01319878214367
62.01319878214367
62.01319878214367
59.4271692814295
59.37111796620126
59.31730052828999
59.26567845901316
59.2162218974322
59.16890803427661
59.1237198504271
59.08064519742617
59.0396761704871
90.30582478297414
89.77291212517176
89.24839885655766
88.7322886995198
88.22458334868182
87.72528263910431
87.23438481325117
86.75188690143821
86.27778518481965
85.81207561169703
85.35475385967838
84.90581439836289
84.46524715075445
84.03302870424771
83.50304821455465
82.97521969090543
82.44952835195375
81.92595601215855
81.40447974360403
80.88507037942094
80.36769088790952
79.85229471910665
62.01319878214367
62.01319878214367
62.01319878214367
62.01319878214367
62.01319878214367
62.01319878214367
62.01319878214367
62.01319878214367
62.01319878214367
62.01319878214367
59.45550778060866
59.40068716581951
59.34782738692848
59.29694015804823
59.248033813042376
59.201113977262274
59.156184086000934
59.113245759773456
59.072299058548424
90.46020127247255
89.92731780536037
89.40263769952317
88.88616497787686
88.3779018282432
87.87784857719393
87.3860036353699
86.90236339672411
86.42692207864597
85.95967150854928
85.50060090770718
85.04969682716023
84.60694364702728
84.17232564231597
83.63923899575053
83.10829492978536
82.57949375884988
82.05283680950846
81.52832689540952
81.00596887508455
80.48577029856601
79.96774213099594
62.01319878214367
62.01319878214367
62.01319878214367
62.01319878214367
62.01319878214367
62.01319878214367
62.01319878214367
62.01319878214367
62.01319878214367
62.01319878214367
59.46520204862415
59.410465142707125
59.35771138759445
59.3069353343479
59.258132545540676
59.211299335662005
59.16643257482987
59.123529548226756
59.08258786178947
90.54886105528514
90.0159931011974
89.49121333110985
88.97452568253347
88.46593227381905
87.96543340281472
87.47302755154067
86.98871140406156
86.51247988638649
86.04432623624105
85.58424210254388
85.13221764735705
84.68824154233309
84.25230054411452
83.7175030412145
83.18483336920679
82.65428871819154
82.12586589501862
81.59956115539782
81.07536999736215
80.55328690855603
80.03330506376568
62.01319878214367
62.01319878214367
62.01319878214367
62.01319878214367
62.01319878214367
62.01319878214367
62.01319878214367
62.01319878214367
62.01319878214367
62.01319878214367
59.4681699154955
59.41353430927083
59.36085824854131
59.31014124706726
59.261382403840535
59.21458050336752
59.16973408985454
59.12684151954924
59.08590099542814
90.57776044789087
90.04489736225345
89.5200845662771
89.00332604650204
88.49462403132738
87.99397899788505
87.50138967996985
87.01685307352629
86.54036443436746
86.07191726144521
85.6115032603539
85.15911229261167
84.71473235685453
84.27834976369321
83.74297913326724
83.20973255531761
82.67860821327132
82.14960442605226
81.62271974445659
81.09795307325362
80.57530382544606
80.0547721137753
62.01319878214367
62.01319878214367
62.01319878214367
62.01319878214367
62.01319878214367
62.01319878214367
62.01319878214367
62.01319878214367
62.01319878214367
62.01319878214367
59.46886480156407
59.414235214723824
59.36156794034452
59.31086055358725
59.26211080654127
59.215316567040766
59.170475774058126
59.1275864065788
59.08664646317985
90.54886105528566
90.01599310119792
89.49121333111034
88.97452568253391
88.46593227381942
87.96543340281502
87.47302755154097
86.98871140406189
86.51247988638683
86.04432623624142
85.58424210254428
85.13221764735746
84.68824154233351
84.25230054411493
83.71750304121494
83.18483336920721
82.65428871819196
82.125865895019
81.59956115539822
81.07536999736254
80.55328690855643
80.03330506376611
62.01319878214367
62.01319878214367
62.01319878214367
62.01319878214367
62.01319878214367
62.01319878214367
62.01319878214367
62.01319878214367
62.01319878214367
62.01319878214367
59.46816991549606
59.41353430927142
59.36085824854191
59.31014124706786
59.261382403841154
59.21458050336816
59.16973408985519
59.126841519549885
59.08590099542879
90.46020127247333
89.92731780536117
89.40263769952395
88.88616497787763
88.37790182824395
87.87784857719467
87.3860036353706
86.9023633967248
86.42692207864663
85.95967150854995
85.50060090770783
85.04969682716091
84.60694364702796
84.1723256423167
83.63923899575124
83.10829492978604
82.57949375885056
82.05283680950913
81.52832689541019
81.00596887508523
80.48577029856669
79.96774213099658
62.01319878214367
62.01319878214367
62.01319878214367
62.01319878214367
62.01319878214367
62.01319878214367
62.01319878214367
62.01319878214367
62.01319878214367
62.01319878214367
59.46520204862553
59.410465142708524
59.357711387595884
59.306935334349376
59.25813254554216
59.21129933566348
59.166432574831354
59.12352954822825
59.08258786179097
90.30582478297468
89.77291212517227
89.24839885655815
88.73228869952025
88.22458334868226
87.72528263910472
87.23438481325157
86.75188690143858
86.27778518482
85.8120756116974
85.35475385967881
84.90581439836333
84.46524715075495
84.0330287042482
83.50304821455518
82.97521969090594
82.44952835195423
81.925956012159
81.40447974360438
80.88507037942122
80.36769088790976
79.85229471910688
62.01319878214367
62.01319878214367
62.01319878214367
62.01319878214367
62.01319878214367
62.01319878214367
62.01319878214367
62.01319878214367
62.01319878214367
62.01319878214367
59.455507780612194
59.400687165823136
59.34782738693215
59.296940158051896
59.248033813046014
59.20111397726587
59.156184086004444
59.11324575977687
59.072299058551806
90.0757440048454
89.5427732124773
89.01846647998175
88.50283201760345
87.9958777150748
87.49760970198268
87.00803054097626
86.52713730459598
86.05492000632272
85.59136120325171
85.1364380872068
84.69012920041568
84.25242976831176
83.82338374513272
83.29762969281556
82.77413861165805
82.25295585481031
81.73413634909896
81.21774796050309
80.70387502309654
80.19262179563297
79.68411533391536
62.01319878214367
62.01319878214367
62.01319878214367
62.01319878214367
62.01319878214367
62.01319878214367
62.01319878214367
62.01319878214367
62.01319878214367
62.01319878214367
59.427169281432306
59.371117966204125
59.31730052829291
59.265678459016144
59.21622189743524
59.16890803427969
59.12371985043023
59.08064519742935
59.039676170490296
89.75881731543137
89.22559917453783
88.70108537569726
88.18532205179648
87.67838074996097
87.18035688345687
86.69136641515547
86.21153971630214
85.74101103764976
85.27990139069969
84.82829196633452
84.38618417125065
83.95343878277986
83.52967736642232
83.01030612185308
82.49292235707601
81.97733873949807
81.46334400296918
80.95069633646548
80.4391172641398
79.92828716328944
79.41784456726006
62.01319878214367
62.01319878214367
62.01319878214367
62.01319878214367
62.01319878214367
62.01319878214367
62.01319878214367
62.01319878214367
62.01319878214367
62.01319878214367
59.33339091087602
59.277681080148234
59.22384045195985
59.17198455080868
59.12220468910971
59.0745710900553
59.029135440810876
58.98593274610526
58.94498259191567
89.3601516989263
88.82603703274717
88.29949620953026
87.78059418940606
87.26944095210497
86.76620201421683
86.27111544686184
85.7845165921824
85.30687181847303
84.8388225841308
84.3812401919669
83.93529096433261
83.5025185292295
83.08497391303759
82.57924350786132
82.07744267770046
81.58012789697374
81.08788991559766
80.60135954407293
80.1212094813713
79.6481475704046
79.18289334787468
62.01319878214367
62.01319878214367
62.01319878214367
62.01319878214367
62.01319878214367
62.01319878214367
62.01319878214367
62.01319878214367
62.01319878214367
62.01319878214367
59.079407672581176
59.00716567866576
58.93976891424263
58.877001693514366
58.81869016345018
58.764697680192604
58.71492072837188
58.66928606180749
58.627748798654046
88.93026991778764
88.39483448815169
87.86498061607291
87.34059710444456
86.82149963824985
86.30743188573466
85.79806246368777
85.29297907267647
84.79168361917955
84.29359565574097
83.79807787885365
83.30450206327906
82.81234964450027
82.32125988503552
81.71310775932307
81.10605209137766
80.50001540550777
79.89490657698678
79.2906282918649
78.68710166138435
78.08432499253372
77.48249587948825
62.01319878214367
62.01319878214367
62.01319878214367
62.01319878214367
62.01319878214367
62.01319878214367
62.01319878214367
62.01319878214367
62.01319878214367
62.01319878214367
58.14220213147493
58.09527421349424
58.04909277245533
58.003829198745684
57.959614909107735
57.91654745257926
57.874697107596695
57.83411111838239
57.79481633419573
88.90865441620673
88.37317894828959
87.84323471709332
87.31869529963312
86.79935552037315
86.28493315088278
85.77506297731827
85.26928548146451
84.76703331696314
84.26762047202024
83.77024634815876
83.2740521176786
82.77828696445832
82.28249757184182
81.66779195084894
81.05404151642757
80.44113312672548
79.82888322109713
79.2170058385127
78.6050613467752
77.99232575599561
77.37766152525882
76.75364772769079
64.43220635676215
61.12726491318008
59.938666447402625
59.586685076683494
59.46057500072959
59.399192275431794
59.300926696645284
59.05503600448079
58.14048717944009
58.09298963880536
58.04669666164726
58.00109930740509
57.956385595502695
57.91265394987402
57.86998383308429
57.82843561213948
57.788051315711066
57.748855323939026
88.88718785376003
88.35167847440306
87.82166126252203
87.29699337007273
86.77744851005653
86.26271940532668
85.75240855658382
85.2460110926813
84.7428920458496
84.24226006424041
83.74314604188402
83.24443854363291
82.74511743327291
82.24465030009786
81.62345302894076
81.00311188624282
80.38350644852409
79.76438854493315
79.1453233162857
78.52559663386134
77.90402827836344
77.27818083763322
76.64445119095049
64.59336136789807
61.086202108873515
59.901607261889
59.534433840191014
59.40740127849916
59.34368022937685
59.245627640019485
58.98436583144305
58.09215622663736
58.045261497018636
57.99925373777427
57.95412169897877
57.9098570005645
57.86652696170839
57.82419220495468
57.7829024625997
57.74269376017994
57.70358745546093
88.86587382781944
88.33033765406556
87.80026714168038
87.27550096517045
86.75579143032543
86.24080754168331
85.73012179163192
85.2231869528317
84.71930396131636
84.21757964486002
83.71687599197983
83.21580221338525
82.71299599958348
82.20783920047738
81.58017809927772
80.95334920476922
80.32727802294622
79.7017031774145
79.07611313790474
78.4496734032261
77.82108164144124
77.18848563425011
76.54960642936213
64.72102434922651
61.04810275627906
59.863179909072194
59.48414539592322
59.35588615921064
59.2903518729845
59.19217752599034
58.9182583053946
58.044832620055935
57.99847861276757
57.95291886014211
57.90817986775131
57.864293441576876
57.82130063397526
57.77924898597845
57.738179580222024
57.69812314747149
57.65909821513406