# vtk DataFile Version 2.0
Niestacjonarne zagadnienie cieplne - ogrzewanie wody w garnku stalowym
ASCII
DATASET UNSTRUCTURED_GRID
POINTS 1353 float
0.0 0.0 0.0
0.0 0.0015384615384615385 0.0
0.0 0.003076923076923077 0.0
0.0 0.004615384615384615 0.0
0.0 0.006153846153846154 0.0
0.0 0.007692307692307693 0.0
0.0 0.00923076923076923 0.0
0.0 0.010769230769230769 0.0
0.0 0.012307692307692308 0.0
0.0 0.013846153846153847 0.0
0.0 0.015384615384615385 0.0
0.0 0.016923076923076923 0.0
0.0 0.01846153846153846 0.0
0.0 0.02 0.0
0.0 0.020555555555555556 0.0
0.0 0.021111111111111112 0.0
0.0 0.021666666666666667 0.0
0.0 0.022222222222222223 0.0
0.0 0.02277777777777778 0.0
0.0 0.023333333333333334 0.0
0.0 0.02388888888888889 0.0
0.0 0.024444444444444446 0.0
0.0 0.025 0.0
0.0 0.036111111111111115 0.0
0.0 0.04722222222222222 0.0
0.0 0.058333333333333334 0.0
0.0 0.06944444444444445 0.0
0.0 0.08055555555555556 0.0
0.0 0.09166666666666667 0.0
0.0 0.10277777777777777 0.0
0.0 0.1138888888888889 0.0
0.0 0.125 0.0
0.0 0.12555555555555556 0.0
0.0 0.12611111111111112 0.0
0.0 0.12666666666666668 0.0
0.0 0.1272222222222222 0.0
0.0 0.12777777777777777 0.0
0.0 0.12833333333333333 0.0
0.0 0.1288888888888889 0.0
0.0 0.12944444444444445 0.0
0.0 0.13 0.0
5.555555555555556E-4 0.0 0.0
5.555555555555556E-4 0.0015384615384615385 0.0
5.555555555555556E-4 0.003076923076923077 0.0
5.555555555555556E-4 0.004615384615384615 0.0
5.555555555555556E-4 0.006153846153846154 0.0
5.555555555555556E-4 0.007692307692307693 0.0
5.555555555555556E-4 0.00923076923076923 0.0
5.555555555555556E-4 0.010769230769230769 0.0
5.555555555555556E-4 0.012307692307692308 0.0
5.555555555555556E-4 0.013846153846153847 0.0
5.555555555555556E-4 0.015384615384615385 0.0
5.555555555555556E-4 0.016923076923076923 0.0
5.555555555555556E-4 0.01846153846153846 0.0
5.555555555555556E-4 0.02 0.0
5.555555555555556E-4 0.020555555555555556 0.0
5.555555555555556E-4 0.021111111111111112 0.0
5.555555555555556E-4 0.021666666666666667 0.0
5.555555555555556E-4 0.022222222222222223 0.0
5.555555555555556E-4 0.02277777777777778 0.0
5.555555555555556E-4 0.023333333333333334 0.0
5.555555555555556E-4 0.02388888888888889 0.0
5.555555555555556E-4 0.024444444444444446 0.0
5.555555555555556E-4 0.025 0.0
5.555555555555556E-4 0.036111111111111115 0.0
5.555555555555556E-4 0.04722222222222222 0.0
5.555555555555556E-4 0.058333333333333334 0.0
5.555555555555556E-4 0.06944444444444445 0.0
5.555555555555556E-4 0.08055555555555556 0.0
5.555555555555556E-4 0.09166666666666667 0.0
5.555555555555556E-4 0.10277777777777777 0.0
5.555555555555556E-4 0.1138888888888889 0.0
5.555555555555556E-4 0.125 0.0
5.555555555555556E-4 0.12555555555555556 0.0
5.555555555555556E-4 0.12611111111111112 0.0
5.555555555555556E-4 0.12666666666666668 0.0
5.555555555555556E-4 0.1272222222222222 0.0
5.555555555555556E-4 0.12777777777777777 0.0
5.555555555555556E-4 0.12833333333333333 0.0
5.555555555555556E-4 0.1288888888888889 0.0
5.555555555555556E-4 0.12944444444444445 0.0
5.555555555555556E-4 0.13 0.0
0.0011111111111111111 0.0 0.0
0.0011111111111111111 0.0015384615384615385 0.0
0.0011111111111111111 0.003076923076923077 0.0
0.0011111111111111111 0.004615384615384615 0.0
0.0011111111111111111 0.006153846153846154 0.0
0.0011111111111111111 0.007692307692307693 0.0
0.0011111111111111111 0.00923076923076923 0.0
0.0011111111111111111 0.010769230769230769 0.0
0.0011111111111111111 0.012307692307692308 0.0
0.0011111111111111111 0.013846153846153847 0.0
0.0011111111111111111 0.015384615384615385 0.0
0.0011111111111111111 0.016923076923076923 0.0
0.0011111111111111111 0.01846153846153846 0.0
0.0011111111111111111 0.02 0.0
0.0011111111111111111 0.020555555555555556 0.0
0.0011111111111111111 0.021111111111111112 0.0
0.0011111111111111111 0.021666666666666667 0.0
0.0011111111111111111 0.022222222222222223 0.0
0.0011111111111111111 0.02277777777777778 0.0
0.0011111111111111111 0.023333333333333334 0.0
0.0011111111111111111 0.02388888888888889 0.0
0.0011111111111111111 0.024444444444444446 0.0
0.0011111111111111111 0.025 0.0
0.0011111111111111111 0.036111111111111115 0.0
0.0011111111111111111 0.04722222222222222 0.0
0.0011111111111111111 0.058333333333333334 0.0
0.0011111111111111111 0.06944444444444445 0.0
0.0011111111111111111 0.08055555555555556 0.0
0.0011111111111111111 0.09166666666666667 0.0
0.0011111111111111111 0.10277777777777777 0.0
0.0011111111111111111 0.1138888888888889 0.0
0.0011111111111111111 0.125 0.0
0.0011111111111111111 0.12555555555555556 0.0
0.0011111111111111111 0.12611111111111112 0.0
0.0011111111111111111 0.12666666666666668 0.0
0.0011111111111111111 0.1272222222222222 0.0
0.0011111111111111111 0.12777777777777777 0.0
0.0011111111111111111 0.12833333333333333 0.0
0.0011111111111111111 0.1288888888888889 0.0
0.0011111111111111111 0.12944444444444445 0.0
0.0011111111111111111 0.13 0.0
0.0016666666666666666 0.0 0.0
0.0016666666666666666 0.0015384615384615385 0.0
0.0016666666666666666 0.003076923076923077 0.0
0.0016666666666666666 0.004615384615384615 0.0
0.0016666666666666666 0.006153846153846154 0.0
0.0016666666666666666 0.007692307692307693 0.0
0.0016666666666666666 0.00923076923076923 0.0
0.0016666666666666666 0.010769230769230769 0.0
0.0016666666666666666 0.012307692307692308 0.0
0.0016666666666666666 0.013846153846153847 0.0
0.0016666666666666666 0.015384615384615385 0.0
0.0016666666666666666 0.016923076923076923 0.0
0.0016666666666666666 0.01846153846153846 0.0
0.0016666666666666666 0.02 0.0
0.0016666666666666666 0.020555555555555556 0.0
0.0016666666666666666 0.021111111111111112 0.0
0.0016666666666666666 0.021666666666666667 0.0
0.0016666666666666666 0.022222222222222223 0.0
0.0016666666666666666 0.02277777777777778 0.0
0.0016666666666666666 0.023333333333333334 0.0
0.0016666666666666666 0.02388888888888889 0.0
0.0016666666666666666 0.024444444444444446 0.0
0.0016666666666666666 0.025 0.0
0.0016666666666666666 0.036111111111111115 0.0
0.0016666666666666666 0.04722222222222222 0.0
0.0016666666666666666 0.058333333333333334 0.0
0.0016666666666666666 0.06944444444444445 0.0
0.0016666666666666666 0.08055555555555556 0.0
0.0016666666666666666 0.09166666666666667 0.0
0.0016666666666666666 0.10277777777777777 0.0
0.0016666666666666666 0.1138888888888889 0.0
0.0016666666666666666 0.125 0.0
0.0016666666666666666 0.12555555555555556 0.0
0.0016666666666666666 0.12611111111111112 0.0
0.0016666666666666666 0.12666666666666668 0.0
0.0016666666666666666 0.1272222222222222 0.0
0.0016666666666666666 0.12777777777777777 0.0
0.0016666666666666666 0.12833333333333333 0.0
0.0016666666666666666 0.1288888888888889 0.0
0.0016666666666666666 0.12944444444444445 0.0
0.0016666666666666666 0.13 0.0
0.0022222222222222222 0.0 0.0
0.0022222222222222222 0.0015384615384615385 0.0
0.0022222222222222222 0.003076923076923077 0.0
0.0022222222222222222 0.004615384615384615 0.0
0.0022222222222222222 0.006153846153846154 0.0
0.0022222222222222222 0.007692307692307693 0.0
0.0022222222222222222 0.00923076923076923 0.0
0.0022222222222222222 0.010769230769230769 0.0
0.0022222222222222222 0.012307692307692308 0.0
0.0022222222222222222 0.013846153846153847 0.0
0.0022222222222222222 0.015384615384615385 0.0
0.0022222222222222222 0.016923076923076923 0.0
0.0022222222222222222 0.01846153846153846 0.0
0.0022222222222222222 0.02 0.0
0.0022222222222222222 0.020555555555555556 0.0
0.0022222222222222222 0.021111111111111112 0.0
0.0022222222222222222 0.021666666666666667 0.0
0.0022222222222222222 0.022222222222222223 0.0
0.0022222222222222222 0.02277777777777778 0.0
0.0022222222222222222 0.023333333333333334 0.0
0.0022222222222222222 0.02388888888888889 0.0
0.0022222222222222222 0.024444444444444446 0.0
0.0022222222222222222 0.025 0.0
0.0022222222222222222 0.036111111111111115 0.0
0.0022222222222222222 0.04722222222222222 0.0
0.0022222222222222222 0.058333333333333334 0.0
0.0022222222222222222 0.06944444444444445 0.0
0.0022222222222222222 0.08055555555555556 0.0
0.0022222222222222222 0.09166666666666667 0.0
0.0022222222222222222 0.10277777777777777 0.0
0.0022222222222222222 0.1138888888888889 0.0
0.0022222222222222222 0.125 0.0
0.0022222222222222222 0.12555555555555556 0.0
0.0022222222222222222 0.12611111111111112 0.0
0.0022222222222222222 0.12666666666666668 0.0
0.0022222222222222222 0.1272222222222222 0.0
0.0022222222222222222 0.12777777777777777 0.0
0.0022222222222222222 0.12833333333333333 0.0
0.0022222222222222222 0.1288888888888889 0.0
0.0022222222222222222 0.12944444444444445 0.0
0.0022222222222222222 0.13 0.0
0.002777777777777778 0.0 0.0
0.002777777777777778 0.0015384615384615385 0.0
0.002777777777777778 0.003076923076923077 0.0
0.002777777777777778 0.004615384615384615 0.0
0.002777777777777778 0.006153846153846154 0.0
0.002777777777777778 0.007692307692307693 0.0
0.002777777777777778 0.00923076923076923 0.0
0.002777777777777778 0.010769230769230769 0.0
0.002777777777777778 0.012307692307692308 0.0
0.002777777777777778 0.013846153846153847 0.0
0.002777777777777778 0.015384615384615385 0.0
0.002777777777777778 0.016923076923076923 0.0
0.002777777777777778 0.01846153846153846 0.0
0.002777777777777778 0.02 0.0
0.002777777777777778 0.020555555555555556 0.0
0.002777777777777778 0.021111111111111112 0.0
0.002777777777777778 0.021666666666666667 0.0
0.002777777777777778 0.022222222222222223 0.0
0.002777777777777778 0.02277777777777778 0.0
0.002777777777777778 0.023333333333333334 0.0
0.002777777777777778 0.02388888888888889 0.0
0.002777777777777778 0.024444444444444446 0.0
0.002777777777777778 0.025 0.0
0.002777777777777778 0.036111111111111115 0.0
0.002777777777777778 0.04722222222222222 0.0
0.002777777777777778 0.058333333333333334 0.0
0.002777777777777778 0.06944444444444445 0.0
0.002777777777777778 0.08055555555555556 0.0
0.002777777777777778 0.09166666666666667 0.0
0.002777777777777778 0.10277777777777777 0.0
0.002777777777777778 0.1138888888888889 0.0
0.002777777777777778 0.125 0.0
0.002777777777777778 0.12555555555555556 0.0
0.002777777777777778 0.12611111111111112 0.0
[...]
POINT_DATA 1353
SCALARS Temperatura float 1
LOOKUP_TABLE default
75.28978058786669
74.7436323975703
74.20368231080406
73.66957049464318
73.14098038368797
72.6175326573516
72.09874944434263
71.58401146544831
71.07250251569852
70.56310930396482
70.05431131444658
69.54364263472371
69.02808915400794
68.49273609208205
67.8067902302263
67.14743412604503
66.49637038983256
65.8502533531494
65.20693649876691
64.56498855556875
63.92336005476501
63.28130239159225
62.63836158477728
51.37367421579203
47.281977229182274
46.07928235691724
45.67360656913169
45.542560680457385
45.48067922353138
45.404071150248946
45.1768020429335
44.56965466593272
44.53785189282337
44.50663760982213
44.47609645772004
44.446302752022
44.41731992054983
44.389200099498176
44.36198385403702
44.335699991885846
44.31036544676209
75.30626896914106
74.76000517443639
74.21991210750973
73.68566222967306
73.15693930017822
72.63336679027928
72.11446904252863
71.59963072007629
71.08803857187617
70.57859892331467
70.06975971888546
69.55932342126073
69.0432783929306
68.51366202657563
67.85039754200069
67.19285034061781
66.54270884963464
65.89687928433023
65.253588731918
64.61149935364809
63.96959018526061
63.32710878899797
62.683583541682125
51.3936723565845
47.30904426058957
46.10604906432884
45.700659620274365
45.56966573350806
45.507815063324465
45.43119130234347
45.20434956935451
44.59556215178826
44.56367858394475
44.532388928297735
44.501778283472824
44.47192131654295
44.44288171509026
44.41471180202458
44.38745227285975
44.361132020529666
44.33576802508335
75.32285560935821
74.77653424913937
74.23633814166921
73.7019905779827
73.17318379561969
72.6495480917553
72.13061539707421
71.61578055623971
71.10424754324738
70.59494592888443
70.08638896525513
69.57645292643663
69.06148410846764
68.53766170583812
67.88444056988355
67.23395635131129
66.58705300114828
65.94322036097107
65.30124817908475
64.66002847289597
64.01859779044094
63.37617939472614
62.73223855541545
51.38933083616812
47.3345375447416
46.132995014456235
45.729325695900705
45.59874578911722
45.537118203184015
45.460597365101194
45.235516957508274
44.62303659647869
44.5909751406386
44.55952277191195
44.52876578418728
44.49877972995795
44.46962892448185
44.44136612640307
44.414032328510764
44.38765661505618
44.36225606777675
75.33957004426236
74.79322083596402
74.25295984846527
73.71855400137851
73.18971146497061
72.66607327614882
72.14718375401124
71.63245491580311
71.12111723891024
70.61214364114201
70.10413508876593
69.5951001022221
69.08214517240496
68.56325870442426
67.91724731132915
67.27284590730825
66.63046067347865
65.98985412147987
65.35032084967864
64.71094433469155
64.07078798689923
63.42899320353587
62.78488443904761
51.360137776108054
47.35871249709154
46.16005165555776
45.75963128394974
45.62979611173576
45.56859661661801
45.49227685712747
45.270334028819
44.65206632711809
44.6197283574585
44.588024745026736
44.55704370094006
44.526862131672594
44.49754527127989
44.46914650694724
44.44170726770889
44.41525692167291
44.389812700095945
75.35642778592825
74.81006884574613
74.26977592289053
73.73534985429502
73.20651828849951
72.68293678094744
72.16416645979263
71.64964272708885
71.13863165195606
70.63016581001386
70.12294997089809
69.61520791708425
69.1047298125251
68.59024848540501
67.95034774411408
67.31157810649798
66.67404134493628
66.03749302412237
65.40135162238481
64.76478227386127
64.12679282051275
63.48634082775344
62.84247908389418
51.30523863133958
47.38200618651629
46.1870997972297
45.79162136513182
45.66280667918146
45.60226258390268
45.52620689374792
45.308848596772506
44.68263047022277
44.64991481402152
44.61786952311894
44.58658541397177
44.55614104675383
44.52660268170557
44.498024443693154
44.47044830974064
44.443904015276516
44.41840897106869
75.37343732291636
74.82708134739873
74.28678460455973
73.75237429774106
73.22359865472984
72.7001308934188
72.18155289856806
71.66732890384904
71.15676876718322
70.64897654053028
70.14277874365852
69.63664920297926
69.12889588616129
68.61855726307961
67.98434569281217
67.3510631031463
66.7186350313857
66.08676220021492
65.45487936988415
64.82213760841363
64.18740434306353
63.54931280882939
62.90643295002656
51.22340733433857
47.40505339394948
46.21396212022815
45.825362423314154
45.69776095552398
45.6381334148336
45.562353393619084
45.351127319575724
44.714698438019624
44.6815001485751
44.64902015981055
44.61735253353841
44.58657716832944
44.55676114530511
44.527959344909114
44.50021451069091
44.47355678626282
44.44800374940565
75.39060291961226
74.84425969425374
74.30398335952809
73.76962232137961
73.24094539348451
72.71764584650428
72.19932969656942
71.68549465754221
71.1755010246007
70.66853325697578
70.16355304394618
69.65928291029692
69.15441028207067
68.64811779065815
68.0194849611651
67.39173411645532
66.76470367853109
66.13807040409306
65.5112888201695
64.88351477325988
64.25345279194283
63.61926706471764
62.978699172489236
51.11300070489615
47.42871089559959
46.24039199044314
45.86094693988934
45.7346340567808
45.67623251518332
45.600669938369315
45.397256898508175
44.74822926314985
44.714437348319265
44.68142688725641
44.64929438392018
44.61811949647077
44.587968455189944
44.55889828533141
44.5309525817866
44.50416180819793
44.4785436089011
75.4079258989324
74.86160341990323
74.3213686176093
73.7870877398228
73.25854983144531
72.7354699408903
72.2174809612398
71.70411783503758
71.19479628552195
70.68878748979554
70.18519489721443
69.68297293006268
69.18109617427659
68.67884647435586
68.05583210447257
67.43375249215384
66.81242546507052
66.19155647679221
65.57068235941787
64.94907790518465
64.32556595502992
63.69771333559379
63.06192716334555
50.971888202056874
47.45409258990527
46.26605763924654
45.89849972472957
45.77339017138241
45.71659085625273
45.64109626311795
45.4473455827294
44.78317102334412
44.748662349898964
44.71502221226464
44.682351766022016
44.65070473396578
44.62015970484596
44.59077565439582
44.56259668539129
44.53565322077849
44.509962739934195
75.4254053260338
74.8791103465745
74.33893563972579
73.80476318459519
73.27640186296622
72.75358969081121
72.23598853548171
71.72317336191546
71.21461868901036
70.70968598932573
70.20762129225844
69.70759165756314
69.2088045936663
68.71064112249618
68.09334698225805
67.47710550079124
66.8617603663886
66.24709454581287
65.63280066882024
65.01843043288154
64.4032632786087
63.786184611678294
63.15972393970455
50.79734359631435
47.48261979872822
46.29052021388617
45.938186622429654
45.813979049739636
45.75924885477876
45.68355663981602
45.501523839601234
44.81946471730618
44.78402023941057
44.74976470008201
44.71645180967636
44.68425583942349
44.65325642785274
44.62351275688944
44.595068270735815
44.56795268562845
44.54218294230106
75.44303843218206
74.89677674374515
74.3566784815907
73.82264011246201
73.29449003305822
72.77198998576299
72.25483227283345
71.74263372419604
71.2349294599828
70.73117213866828
70.2307472600336
69.73301865547879
69.23739968472744
68.74338387832229
68.13192242508214
67.52166767331147
66.91251329797059
66.30434523867844
65.69705119928813
65.09054684226987
64.48483584945149
63.88013283642153
47.95611683378791
47.95611683378791
47.95611683378791
47.95611683378791
47.95611683378791
47.95611683378791
47.95611683378791
47.95611683378791
47.95611683378791
47.95611683378791
44.82077930590785
44.78556461846422
44.75150304729192
44.718679540466844
44.68716578924152
44.65701753121342
44.62827605239321
44.600969491100315
44.575113768635795
75.7987258708132
75.25363149305993
74.71650371884706
74.1874015420631
73.66642411547511
73.15372022129321
72.64950373674485
72.15407624278919
71.66785814014185
71.191429785149
70.72558373985866
70.27138908320327
69.8302745927689
69.40415659411669
68.88760033888549
68.37498949564946
67.86684670675302
67.36372580075343
66.86621665980331
66.37494616140087
65.89057051312092
65.41375087482758
47.95611683378791
47.95611683378791
47.95611683378791
47.95611683378791
47.95611683378791
47.95611683378791
47.95611683378791
47.95611683378791
47.95611683378791
47.95611683378791
45.52055870069699
45.465173410191824
45.41409414147545
45.367164130245406
45.32425421191058
45.285261440063714
45.25010702181462
45.21873471335556
45.19110969123432
76.13347975906598
75.58919108339205
75.05392404524645
74.52772160055324
74.01064995059102
73.50279722383716
73.00427056947605
72.5151906961723
72.03568240180272
71.56585898933618
71.10579771475594
70.65550225875624
70.2148449270935
69.78347333204398
69.25493931203158
68.72854832131426
68.20412548718667
67.68147379702071
67.16036805731882
66.6405493833358
66.12172139569252
65.6035502768045
47.95611683378791
47.95611683378791
47.95611683378791
47.95611683378791
47.95611683378791
47.95611683378791
47.95611683378791
47.95611683378791
47.95611683378791
47.95611683378791
45.70792804124453
45.66512088675403
45.62436922864437
45.5857585803324
45.54935713189232
45.515217529134425
45.48337852894282
45.453866255293875
45.42669507630764
76.40064248721204
75.85657486307313
75.32151922095926
74.7954841383154
74.27847800680159
73.77050770485944
73.27157692681517
72.78168439207795
72.3008223635607
71.82897623822834
71.36612646984416
70.91225490314925
70.46735934123102
70.03148382473141
69.49755586721407
68.96603571820201
68.43696646441036
67.91040009439809
67.3864006093299
66.86504726483844
66.3464376937942
65.8306903892945
47.95611683378791
47.95611683378791
47.95611683378791
47.95611683378791
47.95611683378791
47.95611683378791
47.95611683378791
47.95611683378791
47.95611683378791
47.95611683378791
45.77731290444523
45.73416914208809
45.69336692525178
45.65487655507891
45.618674650912
45.584743098983886
45.55306816902946
45.52363985420852
45.49645141476853
76.59454986395026
76.05053234480428
75.51530584213299
74.98887479582638
74.4712418735544
73.96240812598099
73.46237323441007
72.9711358668453
72.48869411631331
72.01504590197106
71.55018903983763
71.09412035926303
70.64683252735651
70.208305742916
69.67083392481756
69.13566937505193
68.60279865538261
68.07220515196569
67.5438678325741
67.01775986212569
66.49384711214265
65.97208667143262
47.95611683378791
47.95611683378791
47.95611683378791
47.95611683378791
47.95611683378791
47.95611683378791
47.95611683378791
47.95611683378791
47.95611683378791
47.95611683378791
45.79811887045535
45.75590118908595
45.71581872631696
45.67787972541565
45.64208991798085
45.60845299154473
45.576970964520804
45.54764446224558
45.52047290578965
76.72453352124549
76.18054070511225
75.64517410828094
75.11843844234558
74.60033681196992
74.09087069091801
73.59003987147787
73.0978423703891
72.61427427833651
72.13932955762259
71.67299983647439
71.21527434976612
70.76614041868112
70.3255854068538
69.7854887969408
69.24769331339155
68.71219966869167
68.1790095189982
67.64812590642936
67.11955377698847
66.59330057731906
66.0693769157183
47.95611683378791
47.95611683378791
47.95611683378791
47.95611683378791
47.95611683378791
47.95611683378791
47.95611683378791
47.95611683378791
47.95611683378791
47.95611683378791
45.80523240934424
45.76307065904052
45.723062217842774
45.68520233043948
45.64948698937071
45.61591274906595
45.58447658142743
45.5551757711035
45.52800784470975
76.79912898915988
76.2551492249384
75.71969876768058
75.1927822409425
74.6744026643773
74.16456145205426
73.66325841618107
73.1704917830319
72.68625822951867
72.21055294794012
71.74336973859104
71.2847011034605
70.83453823760969
70.39287062235242
69.85133541327103
69.31208889282404
68.77512879079303
68.24045247591928
67.70805679917295
67.17793790141991
66.65009097916052
66.12451000606515
47.95611683378791
47.95611683378791
47.95611683378791
47.95611683378791
47.95611683378791
47.95611683378791
47.95611683378791
47.95611683378791
47.95611683378791
47.95611683378791
45.80739850541887
45.765312103992684
45.725361243912154
45.687544948809226
45.651861923179496
45.618310625521175
45.58688932354119
45.557596133498855
45.53042904643856
76.82343434419542
76.27945866063487
75.74398038604797
75.21700418592391
74.69853317436007
74.18856892015907
73.68711145376746
73.19415927174894
72.7097093337279
72.23375704544132
71.76629622295907
71.3073190438529
70.85681602972774
70.41477621212378
69.87275785931924
69.33302513816176
68.79557670855638
68.2604113551234
67.72752807723951
67.19692620286935
66.6686055318355
66.14256651271923
47.95611683378791
47.95611683378791
47.95611683378791
47.95611683378791
47.95611683378791
47.95611683378791
47.95611683378791
47.95611683378791
47.95611683378791
47.95611683378791
45.80790543486859
45.76582299232994
45.725878297237514
45.688068897504614
45.65239246649889
45.61884675804112
45.587429573043295
45.55813873603068
45.53097207965944
76.79912898916037
76.25514922493888
75.71969876768102
75.19278224094292
74.67440266437767
74.16456145205458
73.66325841618138
73.17049178303225
72.68625822951901
72.2105529479405
71.74336973859141
71.28470110346089
70.83453823761006
70.3928706223528
69.85133541327143
69.31208889282442
68.7751287907934
68.24045247591962
67.70805679917329
67.17793790142025
66.65009097916088
66.12451000606553
47.95611683378791
47.95611683378791
47.95611683378791
47.95611683378791
47.95611683378791
47.95611683378791
47.95611683378791
47.95611683378791
47.95611683378791
47.95611683378791
45.8073985054193
45.76531210399313
45.725361243912594
45.68754494880968
45.651861923179965
45.61831062552167
45.58688932354169
45.557596133499345
45.53042904643905
76.72453352124623
76.18054070511299
75.64517410828168
75.11843844234629
74.60033681197062
74.09087069091868
73.59003987147851
73.09784237038973
72.61427427833712
72.1393295576232
71.67299983647499
71.21527434976672
70.76614041868172
70.32558540685442
69.7854887969414
69.24769331339213
68.71219966869225
68.17900951899878
67.64812590642993
67.11955377698905
66.59330057731964
66.06937691571883
47.95611683378791
47.95611683378791
47.95611683378791
47.95611683378791
47.95611683378791
47.95611683378791
47.95611683378791
47.95611683378791
47.95611683378791
47.95611683378791
45.80523240934531
45.763070659041595
45.72306221784387
45.68520233044061
45.649486989371844
45.61591274906707
45.58447658142856
45.55517577110464
45.528007844710885
76.59454986395082
76.0505323448048
75.51530584213347
74.98887479582683
74.47124187355483
73.96240812598138
73.46237323441044
72.97113586684566
72.48869411631365
72.0150459019714
71.550189039838
71.09412035926344
70.64683252735695
70.20830574291645
69.67083392481804
69.1356693750524
68.60279865538308
68.07220515196612
67.54386783257443
67.01775986212597
66.4938471121429
65.97208667143286
47.95611683378791
47.95611683378791
47.95611683378791
47.95611683378791
47.95611683378791
47.95611683378791
47.95611683378791
47.95611683378791
47.95611683378791
47.95611683378791
45.798118870458055
45.755901189088725
45.71581872631979
45.67787972541848
45.64208991798366
45.6084529915475
45.57697096452351
45.54764446224822
45.52047290579227
76.4006424872124
75.85657486307352
75.32151922095967
74.79548413831584
74.27847800680202
73.7705077048599
73.27157692681563
72.7816843920784
72.30082236356118
71.8289762382288
71.3661264698446
70.91225490314964
70.4673593412314
70.03148382473178
69.49755586721443
68.96603571820232
68.43696646441069
67.91040009439844
67.38640060933032
66.86504726483889
66.34643769379467
65.83069038929494
47.95611683378791
47.95611683378791
47.95611683378791
47.95611683378791
47.95611683378791
47.95611683378791
47.95611683378791
47.95611683378791
47.95611683378791
47.95611683378791
45.777312904447385
45.73416914209029
45.69336692525402
45.654876555081195
45.61867465091432
45.58474309898624
45.553068169031846
45.52363985421095
45.49645141477098
76.13347975906575
75.58919108339184
75.05392404524623
74.52772160055297
74.01064995059075
73.50279722383692
73.00427056947582
72.51519069617207
72.03568240180249
71.56585898933601
71.10579771475585
70.65550225875621
70.21484492709348
69.78347333204397
69.25493931203158
68.72854832131428
68.20412548718667
67.68147379702074
67.1603680573188
66.64054938333577
66.12172139569246
65.6035502768044
47.95611683378791
47.95611683378791
47.95611683378791
47.95611683378791
47.95611683378791
47.95611683378791
47.95611683378791
47.95611683378791
47.95611683378791
47.95611683378791
45.70792804124614
45.66512088675567
45.62436922864603
45.58575858033405
45.54935713189397
45.51521752913608
45.483378528944456
45.45386625529549
45.42669507630925
75.79872587081267
75.25363149305942
74.71650371884655
74.18740154206262
73.66642411547463
73.15372022129273
72.64950373674438
72.1540762427887
71.66785814014142
71.1914297851486
70.72558373985832
70.271389083203
69.83027459276863
69.40415659411646
68.8876003388853
68.37498949564927
67.86684670675287
67.36372580075327
66.86621665980316
66.3749461614007
65.89057051312074
65.41375087482739
47.95611683378791
47.95611683378791
47.95611683378791
47.95611683378791
47.95611683378791
47.95611683378791
47.95611683378791
47.95611683378791
47.95611683378791
47.95611683378791
45.52055870069807
45.465173410192925
45.41409414147659
45.36716413024657
45.32425421191174
45.285261440064886
45.25010702181581
45.218734713356774
45.191109691235525
75.44303843218132
74.89677674374441
74.35667848159005
73.82264011246141
73.29449003305773
72.7719899857626
72.25483227283317
71.7426337241958
71.23492945998252
70.73117213866801
70.2307472600333
69.73301865547845
69.23739968472714
68.74338387832204
68.13192242508198
67.52166767331144
66.91251329797063
66.30434523867858
65.69705119928834
65.09054684227014
64.48483584945183
63.88013283642191
47.95611683378791
47.95611683378791
47.95611683378791
47.95611683378791
47.95611683378791
47.95611683378791
47.95611683378791
47.95611683378791
47.95611683378791
47.95611683378791
44.820779305909085
44.78556461846549
44.751503047293205
44.71867954046813
44.68716578924285
44.65701753121475
44.62827605239452
44.600969491101594
44.575113768637074
75.42540532603302
74.87911034657368
74.33893563972516
73.80476318459463
73.27640186296577
72.75358969081086
72.23598853548138
71.72317336191523
71.21461868901012
70.70968598932545
70.20762129225811
69.70759165756277
69.20880459366593
68.71064112249593
68.09334698225788
67.47710550079118
66.8617603663887
66.24709454581304
65.63280066882048
65.01843043288187
64.40326327860903
63.78618461167865
63.159723939704904
50.797343596315706
47.48261979872802
46.290520213886126
45.938186622430486
45.81397904973989
45.75924885477914
45.683556639816416
45.501523839600594
44.81946471730736
44.784020239411795
44.74976470008326
44.71645180967762
44.68425583942477
44.65325642785402
44.62351275689071
44.59506827073707
44.567952685629706
44.54218294230229
75.40792589893154
74.86160341990241
74.32136861760861
73.78708773982228
73.25854983144485
72.73546994088991
72.21748096123945
71.70411783503732
71.19479628552168
70.68878748979526
70.1851948972141
69.6829729300623
69.18109617427626
68.67884647435564
68.05583210447244
67.43375249215381
66.8124254650706
66.19155647679241
65.57068235941813
64.94907790518498
64.32556595503026
63.697713335594166
63.06192716334599
50.97188820205826
47.454092589905116
46.26605763924658
45.8984997247304
45.773390171382665
45.71659085625312
45.64109626311839
45.44734558272874
44.783171023345325
44.74866234990018
44.71502221226589
44.682351766023245
44.65070473396704
44.62015970484721
44.590775654397085
44.56259668539253
44.535653220779736
44.50996273993541
75.39060291961135
74.84425969425295
74.30398335952736
73.76962232137905
73.24094539348405
72.7176458465039
72.19932969656904
71.68549465754195
71.17550102460042
70.66853325697546
70.16355304394588
69.6592829102966
69.15441028207029
68.64811779065798
68.01948496116502
67.3917341164553
66.76470367853115
66.13807040409323
65.5112888201698
64.8835147732602
64.25345279194322
63.619267064718095
62.97869917248972
51.11300070489752
47.42871089559957
46.240391990443186
45.86094693989017
45.734634056781104
45.67623251518372
45.60066993836979
45.39725689850753
44.74822926315112
44.7144373483205
44.68142688725763
44.64929438392143
44.618119496472
44.58796845519116
44.558898285332624
44.53095258178781
44.50416180819912
44.478543608902314
75.37343732291548