# vtk DataFile Version 2.0
Niestacjonarne zagadnienie cieplne - ogrzewanie wody w garnku stalowym
ASCII
DATASET UNSTRUCTURED_GRID
POINTS 1353 float
0.0 0.0 0.0
0.0 0.0015384615384615385 0.0
0.0 0.003076923076923077 0.0
0.0 0.004615384615384615 0.0
0.0 0.006153846153846154 0.0
0.0 0.007692307692307693 0.0
0.0 0.00923076923076923 0.0
0.0 0.010769230769230769 0.0
0.0 0.012307692307692308 0.0
0.0 0.013846153846153847 0.0
0.0 0.015384615384615385 0.0
0.0 0.016923076923076923 0.0
0.0 0.01846153846153846 0.0
0.0 0.02 0.0
0.0 0.020555555555555556 0.0
0.0 0.021111111111111112 0.0
0.0 0.021666666666666667 0.0
0.0 0.022222222222222223 0.0
0.0 0.02277777777777778 0.0
0.0 0.023333333333333334 0.0
0.0 0.02388888888888889 0.0
0.0 0.024444444444444446 0.0
0.0 0.025 0.0
0.0 0.036111111111111115 0.0
0.0 0.04722222222222222 0.0
0.0 0.058333333333333334 0.0
0.0 0.06944444444444445 0.0
0.0 0.08055555555555556 0.0
0.0 0.09166666666666667 0.0
0.0 0.10277777777777777 0.0
0.0 0.1138888888888889 0.0
0.0 0.125 0.0
0.0 0.12555555555555556 0.0
0.0 0.12611111111111112 0.0
0.0 0.12666666666666668 0.0
0.0 0.1272222222222222 0.0
0.0 0.12777777777777777 0.0
0.0 0.12833333333333333 0.0
0.0 0.1288888888888889 0.0
0.0 0.12944444444444445 0.0
0.0 0.13 0.0
5.555555555555556E-4 0.0 0.0
5.555555555555556E-4 0.0015384615384615385 0.0
5.555555555555556E-4 0.003076923076923077 0.0
5.555555555555556E-4 0.004615384615384615 0.0
5.555555555555556E-4 0.006153846153846154 0.0
5.555555555555556E-4 0.007692307692307693 0.0
5.555555555555556E-4 0.00923076923076923 0.0
5.555555555555556E-4 0.010769230769230769 0.0
5.555555555555556E-4 0.012307692307692308 0.0
5.555555555555556E-4 0.013846153846153847 0.0
5.555555555555556E-4 0.015384615384615385 0.0
5.555555555555556E-4 0.016923076923076923 0.0
5.555555555555556E-4 0.01846153846153846 0.0
5.555555555555556E-4 0.02 0.0
5.555555555555556E-4 0.020555555555555556 0.0
5.555555555555556E-4 0.021111111111111112 0.0
5.555555555555556E-4 0.021666666666666667 0.0
5.555555555555556E-4 0.022222222222222223 0.0
5.555555555555556E-4 0.02277777777777778 0.0
5.555555555555556E-4 0.023333333333333334 0.0
5.555555555555556E-4 0.02388888888888889 0.0
5.555555555555556E-4 0.024444444444444446 0.0
5.555555555555556E-4 0.025 0.0
5.555555555555556E-4 0.036111111111111115 0.0
5.555555555555556E-4 0.04722222222222222 0.0
5.555555555555556E-4 0.058333333333333334 0.0
5.555555555555556E-4 0.06944444444444445 0.0
5.555555555555556E-4 0.08055555555555556 0.0
5.555555555555556E-4 0.09166666666666667 0.0
5.555555555555556E-4 0.10277777777777777 0.0
5.555555555555556E-4 0.1138888888888889 0.0
5.555555555555556E-4 0.125 0.0
5.555555555555556E-4 0.12555555555555556 0.0
5.555555555555556E-4 0.12611111111111112 0.0
5.555555555555556E-4 0.12666666666666668 0.0
5.555555555555556E-4 0.1272222222222222 0.0
5.555555555555556E-4 0.12777777777777777 0.0
5.555555555555556E-4 0.12833333333333333 0.0
5.555555555555556E-4 0.1288888888888889 0.0
5.555555555555556E-4 0.12944444444444445 0.0
5.555555555555556E-4 0.13 0.0
0.0011111111111111111 0.0 0.0
0.0011111111111111111 0.0015384615384615385 0.0
0.0011111111111111111 0.003076923076923077 0.0
0.0011111111111111111 0.004615384615384615 0.0
0.0011111111111111111 0.006153846153846154 0.0
0.0011111111111111111 0.007692307692307693 0.0
0.0011111111111111111 0.00923076923076923 0.0
0.0011111111111111111 0.010769230769230769 0.0
0.0011111111111111111 0.012307692307692308 0.0
0.0011111111111111111 0.013846153846153847 0.0
0.0011111111111111111 0.015384615384615385 0.0
0.0011111111111111111 0.016923076923076923 0.0
0.0011111111111111111 0.01846153846153846 0.0
0.0011111111111111111 0.02 0.0
0.0011111111111111111 0.020555555555555556 0.0
0.0011111111111111111 0.021111111111111112 0.0
0.0011111111111111111 0.021666666666666667 0.0
0.0011111111111111111 0.022222222222222223 0.0
0.0011111111111111111 0.02277777777777778 0.0
0.0011111111111111111 0.023333333333333334 0.0
0.0011111111111111111 0.02388888888888889 0.0
0.0011111111111111111 0.024444444444444446 0.0
0.0011111111111111111 0.025 0.0
0.0011111111111111111 0.036111111111111115 0.0
0.0011111111111111111 0.04722222222222222 0.0
0.0011111111111111111 0.058333333333333334 0.0
0.0011111111111111111 0.06944444444444445 0.0
0.0011111111111111111 0.08055555555555556 0.0
0.0011111111111111111 0.09166666666666667 0.0
0.0011111111111111111 0.10277777777777777 0.0
0.0011111111111111111 0.1138888888888889 0.0
0.0011111111111111111 0.125 0.0
0.0011111111111111111 0.12555555555555556 0.0
0.0011111111111111111 0.12611111111111112 0.0
0.0011111111111111111 0.12666666666666668 0.0
0.0011111111111111111 0.1272222222222222 0.0
0.0011111111111111111 0.12777777777777777 0.0
0.0011111111111111111 0.12833333333333333 0.0
0.0011111111111111111 0.1288888888888889 0.0
0.0011111111111111111 0.12944444444444445 0.0
0.0011111111111111111 0.13 0.0
0.0016666666666666666 0.0 0.0
0.0016666666666666666 0.0015384615384615385 0.0
0.0016666666666666666 0.003076923076923077 0.0
0.0016666666666666666 0.004615384615384615 0.0
0.0016666666666666666 0.006153846153846154 0.0
0.0016666666666666666 0.007692307692307693 0.0
0.0016666666666666666 0.00923076923076923 0.0
0.0016666666666666666 0.010769230769230769 0.0
0.0016666666666666666 0.012307692307692308 0.0
0.0016666666666666666 0.013846153846153847 0.0
0.0016666666666666666 0.015384615384615385 0.0
0.0016666666666666666 0.016923076923076923 0.0
0.0016666666666666666 0.01846153846153846 0.0
0.0016666666666666666 0.02 0.0
0.0016666666666666666 0.020555555555555556 0.0
0.0016666666666666666 0.021111111111111112 0.0
0.0016666666666666666 0.021666666666666667 0.0
0.0016666666666666666 0.022222222222222223 0.0
0.0016666666666666666 0.02277777777777778 0.0
0.0016666666666666666 0.023333333333333334 0.0
0.0016666666666666666 0.02388888888888889 0.0
0.0016666666666666666 0.024444444444444446 0.0
0.0016666666666666666 0.025 0.0
0.0016666666666666666 0.036111111111111115 0.0
0.0016666666666666666 0.04722222222222222 0.0
0.0016666666666666666 0.058333333333333334 0.0
0.0016666666666666666 0.06944444444444445 0.0
0.0016666666666666666 0.08055555555555556 0.0
0.0016666666666666666 0.09166666666666667 0.0
0.0016666666666666666 0.10277777777777777 0.0
0.0016666666666666666 0.1138888888888889 0.0
0.0016666666666666666 0.125 0.0
0.0016666666666666666 0.12555555555555556 0.0
0.0016666666666666666 0.12611111111111112 0.0
0.0016666666666666666 0.12666666666666668 0.0
0.0016666666666666666 0.1272222222222222 0.0
0.0016666666666666666 0.12777777777777777 0.0
0.0016666666666666666 0.12833333333333333 0.0
0.0016666666666666666 0.1288888888888889 0.0
0.0016666666666666666 0.12944444444444445 0.0
0.0016666666666666666 0.13 0.0
0.0022222222222222222 0.0 0.0
0.0022222222222222222 0.0015384615384615385 0.0
0.0022222222222222222 0.003076923076923077 0.0
0.0022222222222222222 0.004615384615384615 0.0
0.0022222222222222222 0.006153846153846154 0.0
0.0022222222222222222 0.007692307692307693 0.0
0.0022222222222222222 0.00923076923076923 0.0
0.0022222222222222222 0.010769230769230769 0.0
0.0022222222222222222 0.012307692307692308 0.0
0.0022222222222222222 0.013846153846153847 0.0
0.0022222222222222222 0.015384615384615385 0.0
0.0022222222222222222 0.016923076923076923 0.0
0.0022222222222222222 0.01846153846153846 0.0
0.0022222222222222222 0.02 0.0
0.0022222222222222222 0.020555555555555556 0.0
0.0022222222222222222 0.021111111111111112 0.0
0.0022222222222222222 0.021666666666666667 0.0
0.0022222222222222222 0.022222222222222223 0.0
0.0022222222222222222 0.02277777777777778 0.0
0.0022222222222222222 0.023333333333333334 0.0
0.0022222222222222222 0.02388888888888889 0.0
0.0022222222222222222 0.024444444444444446 0.0
0.0022222222222222222 0.025 0.0
0.0022222222222222222 0.036111111111111115 0.0
0.0022222222222222222 0.04722222222222222 0.0
0.0022222222222222222 0.058333333333333334 0.0
0.0022222222222222222 0.06944444444444445 0.0
0.0022222222222222222 0.08055555555555556 0.0
0.0022222222222222222 0.09166666666666667 0.0
0.0022222222222222222 0.10277777777777777 0.0
0.0022222222222222222 0.1138888888888889 0.0
0.0022222222222222222 0.125 0.0
0.0022222222222222222 0.12555555555555556 0.0
0.0022222222222222222 0.12611111111111112 0.0
0.0022222222222222222 0.12666666666666668 0.0
0.0022222222222222222 0.1272222222222222 0.0
0.0022222222222222222 0.12777777777777777 0.0
0.0022222222222222222 0.12833333333333333 0.0
0.0022222222222222222 0.1288888888888889 0.0
0.0022222222222222222 0.12944444444444445 0.0
0.0022222222222222222 0.13 0.0
0.002777777777777778 0.0 0.0
0.002777777777777778 0.0015384615384615385 0.0
0.002777777777777778 0.003076923076923077 0.0
0.002777777777777778 0.004615384615384615 0.0
0.002777777777777778 0.006153846153846154 0.0
0.002777777777777778 0.007692307692307693 0.0
0.002777777777777778 0.00923076923076923 0.0
0.002777777777777778 0.010769230769230769 0.0
0.002777777777777778 0.012307692307692308 0.0
0.002777777777777778 0.013846153846153847 0.0
0.002777777777777778 0.015384615384615385 0.0
0.002777777777777778 0.016923076923076923 0.0
0.002777777777777778 0.01846153846153846 0.0
0.002777777777777778 0.02 0.0
0.002777777777777778 0.020555555555555556 0.0
0.002777777777777778 0.021111111111111112 0.0
0.002777777777777778 0.021666666666666667 0.0
0.002777777777777778 0.022222222222222223 0.0
0.002777777777777778 0.02277777777777778 0.0
0.002777777777777778 0.023333333333333334 0.0
0.002777777777777778 0.02388888888888889 0.0
0.002777777777777778 0.024444444444444446 0.0
0.002777777777777778 0.025 0.0
0.002777777777777778 0.036111111111111115 0.0
0.002777777777777778 0.04722222222222222 0.0
0.002777777777777778 0.058333333333333334 0.0
0.002777777777777778 0.06944444444444445 0.0
0.002777777777777778 0.08055555555555556 0.0
0.002777777777777778 0.09166666666666667 0.0
0.002777777777777778 0.10277777777777777 0.0
0.002777777777777778 0.1138888888888889 0.0
0.002777777777777778 0.125 0.0
0.002777777777777778 0.12555555555555556 0.0
0.002777777777777778 0.12611111111111112 0.0
[...]
POINT_DATA 1353
SCALARS Temperatura float 1
LOOKUP_TABLE default
55.51470985148002
54.952997295900666
54.39895630947691
53.85224407110978
53.312573115664875
52.77960798317275
52.25293391976658
51.73202185172468
51.216185191222145
50.704507528994064
50.19576009053424
49.68806093782697
49.17907847721852
48.65932933942431
48.00231646807085
47.36150878972405
46.72586487677305
46.093187829719184
45.461997185147574
44.831251526725595
44.20016584060978
43.568183763345424
42.934998338853994
31.818309585529146
27.784639278615703
26.602578576091712
26.205568747844325
26.080727968065833
26.031154930381774
25.988634199841943
25.875482424854034
25.581962701492
25.568599225724046
25.555883566989877
25.543907953293985
25.532757561926775
25.52250766590779
25.51322149758947
25.504948852257606
25.497725303869654
25.49157183939983
55.52531129386229
54.96347813779742
54.40928886070676
53.86243285170701
53.32262281484963
52.78952580181063
52.26272886855336
51.74170589081253
51.22577280217123
50.71402580340003
50.205218952774715
49.69763035026976
49.18834275428002
48.671963769026235
48.02821502844599
47.38832885027224
46.75308128089892
46.12042252989158
45.48908849050762
44.85808555660939
44.22663515236762
43.594165823433464
42.96034640151979
31.818575291004837
27.791910828460477
26.609545616704132
26.212817695558172
26.08802612564821
26.03847607620932
25.995944732331242
25.883036922999832
25.58852162262376
25.575094763600088
25.56231825681716
25.550286172124405
25.539085239464068
25.52879187681764
25.519470052316606
25.511169967309637
25.50392738174113
25.49776334727429
55.5360080859456
54.97411164414144
54.41981179281992
53.87284849286779
53.33294243831965
52.799766688091616
52.27291448213549
51.75186763092039
51.23595467956935
50.724288805509445
50.215667030925864
49.70841674657154
49.19983902022034
48.68696925642395
48.04923063303797
47.41358878790396
46.78032349245596
46.14890731814261
45.518396161978536
44.88791067557636
44.25667490832467
43.624063317485216
42.98966377581601
31.79503034711628
27.797888485251555
26.61692268256571
26.22188340164631
26.097485100990543
26.04810876301122
26.005628533385266
25.89369191145549
25.59678449934951
25.583192842506133
25.57025789969502
25.558079327887345
25.546748458573603
25.536344974912936
25.526934823079113
25.518569196541183
25.51128423487234
25.505101073968508
55.546830042940506
54.98489931899689
54.43052486354932
53.88348983906653
53.343530070390216
52.81032799979533
52.28348700615222
51.76250223718764
51.24672195426418
50.73529035335532
50.22706356968126
49.720456962179455
49.21323097926936
48.70348596315647
48.07028791990554
47.43852619685532
46.80822147434522
46.17900024097825
45.55019806630206
44.92101425691331
44.29063540561719
43.65831646633242
43.023480773334754
31.747172374978323
27.80282424605506
26.62464236789412
26.23279214264299
26.10910105752265
26.06005942891802
26.017679802627438
25.907464620715274
25.60675335145602
25.592889296208522
25.57969246438195
25.567272673228814
25.555729244462725
25.545147130195126
25.53559512503287
25.52712558481383
25.51977488955882
25.51356407623129
55.55779314040524
54.99584555389776
54.441427302323376
53.89435488027883
53.35438249449655
52.82120526185358
52.29444032496942
51.77360105814324
51.25806237120555
50.74701119887822
50.23937517244396
49.73371055813281
49.22819777023306
48.72139080569784
48.092285600587154
47.46435134017937
46.837430257537974
46.21113884409874
45.58486584368165
44.95781564384572
44.32906676168733
43.697655569306036
43.06271046060009
31.67416217564334
27.8071492395679
26.63258728198139
26.245588371852577
26.122865402019137
26.074337564527234
26.032087025213958
25.92438165267724
25.61843128829706
25.604175617981188
25.59060272419323
25.577838833299563
25.565995119197883
25.555163309309393
25.54541503757045
25.536803165291545
25.52936358775108
25.523116725367906
55.56890651019079
55.00695408465987
54.452518089550956
53.90544065608198
53.365495208125814
52.832392248541204
52.30576593894001
51.78515223785839
51.26995902549697
50.759424941408795
50.252562454657294
49.74809313342282
49.244526327094626
48.740627592535574
48.115562864850816
47.491581638991924
46.86842968706042
46.24569287315381
45.62275782793258
44.99877977221947
44.37266320726943
43.743094904782545
43.10870274382641
31.57479480348366
27.811489675186237
26.640582639079913
26.260337671014963
26.138763647723287
26.090956227193388
26.048832643943314
25.944478885619397
25.63182414366968
25.617037730342705
25.60295715854797
25.58973441640541
25.577496453754726
25.56634167068129
25.556342654064863
25.547550793060637
25.539999940135964
25.53370896020772
55.58017523391924
55.01822711140374
54.463795630325635
53.91674326659579
53.376862436619724
52.84388105184958
52.31745310508538
51.79714093064168
51.28239068202537
50.772499831767306
50.26657616769024
49.763509507986264
49.26206337238738
48.7611349728521
48.14023203628061
47.520432621010556
46.90144839331722
46.28286705784701
45.664096326953455
45.044283136238064
44.42215181747834
43.79590582290849
43.16333584944712
31.44745409721986
27.816690912243857
26.648385203572143
26.27713115347604
26.156773717258005
26.109932790297826
26.067892640473076
25.967801132131314
25.64694351595048
25.631452342532782
25.61670514330794
25.60289374745271
25.590162643408586
25.57861158354293
25.56830944761753
25.55930228253741
25.551619443433125
25.545276916588982
55.591601618369666
55.02966518646689
54.47525748180145
53.92825785469401
53.3884771664864
52.85566216756364
52.32948900402759
51.80954953933067
51.29533240168565
50.786199315232075
50.28135960785147
49.779864883419435
49.28068449637747
48.78283369816658
48.16628559831532
47.55093509402013
46.93650997983449
46.322648849566605
45.708849338424905
45.09437457476535
44.47806088036627
43.857506559488975
43.229170391256595
31.290042927788072
27.82385221580456
26.65566767043499
26.296091661701908
26.176863561697857
26.131289949403417
26.08923611611376
25.994401148815278
25.663812672519274
25.647375592368633
25.63175972829391
25.617220600195687
25.603897237450422
25.591882060014463
25.581230323948848
25.571977213666223
25.564144600973485
25.5577441321817
55.60318587054031
55.041267313442
54.486900208940995
53.939978581653925
53.40033119121187
52.867724598912666
52.341858921183544
51.82235802356418
51.30875611367852
50.80048278576689
50.29685145153686
49.797067124443274
49.300277890893426
48.80562637928423
48.193638819535266
47.58299301386832
46.97346916460088
46.36480131335302
45.75665147769016
45.14856061755865
44.53981784479695
43.929347493773456
43.3097089329401
31.0998761021018
27.834376425182104
26.661997018367163
26.31738228124658
26.198987932662053
26.155056934232526
26.112825310904622
26.02433628760161
25.682481583385464
25.66466565239237
25.64798786400506
25.63257393388483
25.618574830859874
25.606042073731885
25.59500512531341
25.585482771907003
25.57748683413136
25.571023464086995
55.614926511707154
55.05303109524401
54.49871933520977
53.95189861753014
53.41241516701585
52.88005597350109
52.35454644535194
51.835544237708724
51.322631169407636
50.81530653122395
50.312987733863096
49.81502624819233
49.32073633967714
48.829400884695055
48.22215658001629
47.61642518697308
47.012057056550574
46.40890343183642
45.80682882665026
45.20573927638702
44.60564369844519
44.00677697735121
27.72411695001902
27.72411695001902
27.72411695001902
27.72411695001902
27.72411695001902
27.72411695001902
27.72411695001902
27.72411695001902
27.72411695001902
27.72411695001902
25.68320692896578
25.665139743055523
25.648764684581767
25.63404407058633
25.62096454680707
25.60952217562344
25.599716797070485
25.591549212606942
25.58501971136152
55.86014067681192
55.299179167521984
54.74731285582983
54.204590674493666
53.67109336568288
53.146941347412884
52.632307795145266
52.127437999583734
51.632676380084206
51.148502990660525
50.67558161129473
50.21482208400928
49.767463771965836
49.33519861067487
48.8110567572261
48.29100101001698
47.77549552689082
47.26503077660439
46.76012701842671
46.26133393773562
45.76922170926719
45.2843554563664
27.72411695001902
27.72411695001902
27.72411695001902
27.72411695001902
27.72411695001902
27.72411695001902
27.72411695001902
27.72411695001902
27.72411695001902
27.72411695001902
26.03549237521619
26.004886843383115
25.977735643439612
25.953967570537305
25.93351857050359
25.916334910768786
25.90237397422045
25.89160444124077
25.88400626896311
56.098846352277896
55.53855114081233
54.98828691305687
54.44809073171847
53.91801860777221
53.398144531249045
52.88855818934262
52.38936054531631
51.900655996345925
51.42253916937255
50.955073561518155
50.498257939681245
50.05197358690795
49.6158996327194
49.08230535714888
48.55121660210396
48.02247435667916
47.49590023910311
46.971291349656745
46.44841570687884
45.92700947455147
45.40677813204785
27.72411695001902
27.72411695001902
27.72411695001902
27.72411695001902
27.72411695001902
27.72411695001902
27.72411695001902
27.72411695001902
27.72411695001902
27.72411695001902
26.125387734063334
26.101549428607683
26.07997944860787
26.060719291591305
26.04380316657295
26.029257858618482
26.017103094273104
26.007351935562976
26.000011097841565
56.29072828225626
55.730613585101494
55.18056506924284
54.64059088806498
54.110698275344994
53.59089239649611
53.081174896133625
52.58154232390931
52.09198480341169
51.61248562028886
51.14302289376794
50.683575304601376
50.234135410973295
49.79473705921231
49.257240102008446
48.72249599755515
48.190540055299095
47.66141535561588
47.13517546021367
46.61188720499691
46.09163330694904
45.57451425323107
27.72411695001902
27.72411695001902
27.72411695001902
27.72411695001902
27.72411695001902
27.72411695001902
27.72411695001902
27.72411695001902
27.72411695001902
27.72411695001902
26.159007793929423
26.134843979991434
26.113118755887122
26.093815210874222
26.076919386208274
26.062420007721038
26.050308150080753
26.040576953663184
26.033221416690647
56.42962796682338
55.86955098756229
55.31938533752606
54.77913558290463
54.248803976149404
53.72839059403761
53.217893559531824
52.71730936505552
52.22663327818564
51.74585972554982
51.27498238563022
50.81399340463494
50.36288050516213
49.92161948428587
49.38161259831958
48.84427498967092
48.309591260031084
47.777543136436776
47.24810838196608
46.721259590568444
46.19696291076099
45.67517681341974
27.72411695001902
27.72411695001902
27.72411695001902
27.72411695001902
27.72411695001902
27.72411695001902
27.72411695001902
27.72411695001902
27.72411695001902
27.72411695001902
26.168759655970558
26.14507407775974
26.12371878421864
26.10469680949069
26.08800997253799
26.073659049370953
26.061643939285062
26.051963796183035
26.044617121819094
56.52236214226734
55.96230291850564
55.4120377290858
54.871571367842286
54.34090643855579
53.82004333742848
53.30898021353625
52.80771289149087
52.31623474366136
51.83453651511601
51.362606145828686
50.90042873090637
50.44798697974945
50.0052630067341
49.46336429151026
48.92413401169261
48.3875693859694
47.853668403137966
47.32243021429277
46.79385558939232
46.26794743734187
45.74471137091337
27.72411695001902
27.72411695001902
27.72411695001902
27.72411695001902
27.72411695001902
27.72411695001902
27.72411695001902
27.72411695001902
27.72411695001902
27.72411695001902
26.172079817640395
26.148409429356473
26.127081202204906
26.108091281350085
26.09143620187418
26.077112809830055
26.065118193521766
26.055449631188967
26.0481045546817
56.575415809918745
56.015365814134555
55.465040807672516
54.924445493163816
54.39358236712342
53.87245172085014
53.36105164730249
52.85937806013043
52.36742473262944
51.88518336360884
51.412643669629254
50.94979347780663
50.496618723530496
50.05310308886632
49.510181246180515
48.96991922384807
48.43231148928808
47.897352120521745
47.36503466926837
46.83535199326754
46.308296053312546
45.783857674720885
27.72411695001902
27.72411695001902
27.72411695001902
27.72411695001902
27.72411695001902
27.72411695001902
27.72411695001902
27.72411695001902
27.72411695001902
27.72411695001902
26.173065851477425
26.149432601185744
26.12813233298559
26.109163233650655
26.092523338429533
26.078210564693318
26.066222739435037
26.056557619600472
26.04921290593142
56.59267357398466
56.032626432604005
55.482281545964995
54.94164364785528
54.41071530545832
53.88949692731086
53.377986773304144
52.87618096372617
52.384073482701645
51.90165617018654
51.42891869815929
50.965848537034304
50.51243095368875
50.06864917733029
49.5253817764174
48.98477233017266
48.446816131709284
47.91150851737948
47.37884494863099
46.84882111462061
46.32143306003328
45.79667734091494
27.72411695001902
27.72411695001902
27.72411695001902
27.72411695001902
27.72411695001902
27.72411695001902
27.72411695001902
27.72411695001902
27.72411695001902
27.72411695001902
26.173295848852277
26.149663519575405
26.128365555096853
26.109399346263384
26.09276236155107
26.078452125714666
26.06646620290959
26.05680218443993
26.049457680527226
56.575415809919036
56.015365814134846
55.46504080767279
54.92444549316408
54.39358236712364
53.87245172085033
53.36105164730268
52.85937806013065
52.36742473262968
51.88518336360909
51.4126436696295
50.949793477806885
50.49661872353076
50.05310308886659
49.5101812461808
48.96991922384835
48.43231148928835
47.897352120522
47.36503466926862
46.83535199326778
46.30829605331278
45.78385767472114
27.72411695001902
27.72411695001902
27.72411695001902
27.72411695001902
27.72411695001902
27.72411695001902
27.72411695001902
27.72411695001902
27.72411695001902
27.72411695001902
26.173065851477695
26.149432601186017
26.12813233298587
26.10916323365094
26.09252333842982
26.078210564693617
26.066222739435336
26.056557619600767
26.049212905931718
56.5223621422678
55.962302918506104
55.412037729086265
54.87157136784274
54.340906438556246
53.82004333742893
53.30898021353668
52.80771289149127
52.316234743661745
51.83453651511639
51.362606145829076
50.900428730906775
50.44798697974985
50.00526300673452
49.463364291510665
48.924134011693006
48.38756938596981
47.85366840313838
47.32243021429318
46.79385558939274
46.26794743734229
45.74471137091378
27.72411695001902
27.72411695001902
27.72411695001902
27.72411695001902
27.72411695001902
27.72411695001902
27.72411695001902
27.72411695001902
27.72411695001902
27.72411695001902
26.172079817640977
26.148409429357066
26.127081202205513
26.10809128135071
26.091436201874806
26.077112809830677
26.06511819352239
26.0554496311896
26.048104554682332
56.42962796682368
55.869550987562576
55.31938533752633
54.77913558290489
54.24880397614966
53.72839059403786
53.217893559532044
52.71730936505573
52.226633278185844
51.745859725550034
51.274982385630466
50.813993404635205
50.36288050516242
49.92161948428617
49.38161259831991
48.84427498967126
48.309591260031404
47.77754313643706
47.24810838196631
46.72125959056863
46.196962910761144
45.67517681341989
27.72411695001902
27.72411695001902
27.72411695001902
27.72411695001902
27.72411695001902
27.72411695001902
27.72411695001902
27.72411695001902
27.72411695001902
27.72411695001902
26.16875965597209
26.14507407776131
26.12371878422024
26.104696809492292
26.08800997253958
26.073659049372527
26.061643939286597
26.051963796184527
26.044617121820576
56.29072828225647
55.7306135851017
55.18056506924308
54.64059088806524
54.11069827534526
53.59089239649637
53.08117489613391
52.58154232390961
52.091984803412004
51.61248562028917
51.14302289376823
50.68357530460165
50.234135410973536
49.794737059212544
49.25724010200868
48.722495997555335
48.1905400552993
47.6614153556161
47.13517546021395
46.61188720499724
46.09163330694938
45.5745142532314
27.72411695001902
27.72411695001902
27.72411695001902
27.72411695001902
27.72411695001902
27.72411695001902
27.72411695001902
27.72411695001902
27.72411695001902
27.72411695001902
26.159007793930645
26.13484397999268
26.113118755888394
26.09381521087552
26.076919386209603
26.06242000772238
26.050308150082113
26.04057695366457
26.03322141669204
56.09884635227769
55.53855114081213
54.988286913056655
54.44809073171824
53.91801860777198
53.398144531248846
52.88855818934242
52.389360545316116
51.90065599634573
51.42253916937239
50.95507356151806
50.49825793968118
50.0519735869079
49.615899632719355
49.08230535714883
48.551216602103935
48.02247435667913
47.4959002391031
46.97129134965672
46.448415706878784
45.92700947455139
45.406778132047734
27.72411695001902
27.72411695001902
27.72411695001902
27.72411695001902
27.72411695001902
27.72411695001902
27.72411695001902
27.72411695001902
27.72411695001902
27.72411695001902
26.125387734064255
26.101549428608617
26.079979448608807
26.060719291592232
26.04380316657388
26.029257858619413
26.017103094274017
26.00735193556387
26.00001109784246
55.86014067681151
55.29917916752157
54.74731285582941
54.20459067449325
53.67109336568247
53.146941347412486
52.632307795144904
52.12743799958337
51.63267638008386
51.14850299066021
50.67558161129447
50.21482208400906
49.767463771965616
49.33519861067468
48.811056757225934
48.29100101001682
47.77549552689067
47.26503077660423
46.76012701842655
46.26133393773545
45.769221709267015
45.28435545636622
27.72411695001902
27.72411695001902
27.72411695001902
27.72411695001902
27.72411695001902
27.72411695001902
27.72411695001902
27.72411695001902
27.72411695001902
27.72411695001902
26.035492375216812
26.00488684338375
25.977735643440266
25.95396757053798
25.93351857050427
25.91633491076947
25.90237397422114
25.89160444124148
25.884006268963816
55.61492651170652
55.0530310952434
54.49871933520926
53.95189861752969
53.41241516701552
52.88005597350083
52.354546445351694
51.8355442377085
51.32263116940742
50.81530653122371
50.312987733862826
49.81502624819205
49.32073633967692
48.82940088469484
48.22215658001614
47.61642518697301
47.01205705655056
46.408903431836485
45.806828826650374
45.205739276387185
44.60564369844539
44.006776977351414
27.72411695001902
27.72411695001902
27.72411695001902
27.72411695001902
27.72411695001902
27.72411695001902
27.72411695001902
27.72411695001902
27.72411695001902
27.72411695001902
25.68320692896649
25.66513974305624
25.648764684582495
25.634044070587066
25.62096454680782
25.6095221756242
25.59971679707124
25.591549212607667
25.585019711362246
55.60318587053966
55.04126731344136
54.48690020894048
53.939978581653506
53.400331191211556
52.86772459891234
52.3418589211833
51.822358023563936
51.30875611367828
50.80048278576667
50.29685145153656
49.79706712444297
49.3002778908932
48.805626379284
48.1936388195351
47.58299301386827
46.973469164600886
46.36480131335306
45.75665147769029
45.148560617558815
44.5398178447971
43.92934749377364
43.30970893294029
31.099876102102577
27.834376425182057
26.66199701836711
26.317382281247017
26.198987932662206
26.155056934232718
26.112825310904853
26.024336287601212
25.68248158338613
25.664665652393058
25.647987864005767
25.632573933885553
25.618574830860602
25.606042073732606
25.595005125314145
25.58548277190773
25.57748683413209
25.57102346408769
55.59160161836902
55.02966518646628
54.475257481800945
53.92825785469365
53.3884771664861
52.85566216756329
52.329489004027316
51.80954953933041
51.29533240168546
50.78619931523182
50.281359607851144
49.77986488341915
49.28068449637719
48.78283369816639
48.16628559831519
47.55093509402005
46.936509979834454
46.322648849566654
45.708849338425026
45.09437457476554
44.47806088036644
43.857506559489146
43.2291703912568
31.290042927788875
27.823852215804543
26.655667670434962
26.296091661702356
26.17686356169802
26.13128994940361
26.08923611611401
25.994401148814866
25.66381267251995
25.647375592369322
25.63175972829463
25.617220600196376
25.603897237451115
25.591882060015195
25.581230323949555
25.57197721366693
25.56414460097419
25.557744132182385
55.580175233918595
55.01822711140316
54.463795630325144
53.91674326659537
53.37686243661941
52.843881051849266
52.31745310508509
51.797140930641426
51.282390682025124
50.77249983176698
50.26657616768994
49.76350950798595
49.26206337238714
48.76113497285192
48.140232036280516
47.52043262101045
46.90144839331721
46.28286705784705
45.66409632695362
45.044283136238235
44.42215181747855
43.79590582290869
43.16333584944737