# vtk DataFile Version 2.0
Niestacjonarne zagadnienie cieplne - ogrzewanie wody w garnku stalowym
ASCII
DATASET UNSTRUCTURED_GRID
POINTS 1353 float
0.0 0.0 0.0
0.0 0.0015384615384615385 0.0
0.0 0.003076923076923077 0.0
0.0 0.004615384615384615 0.0
0.0 0.006153846153846154 0.0
0.0 0.007692307692307693 0.0
0.0 0.00923076923076923 0.0
0.0 0.010769230769230769 0.0
0.0 0.012307692307692308 0.0
0.0 0.013846153846153847 0.0
0.0 0.015384615384615385 0.0
0.0 0.016923076923076923 0.0
0.0 0.01846153846153846 0.0
0.0 0.02 0.0
0.0 0.020555555555555556 0.0
0.0 0.021111111111111112 0.0
0.0 0.021666666666666667 0.0
0.0 0.022222222222222223 0.0
0.0 0.02277777777777778 0.0
0.0 0.023333333333333334 0.0
0.0 0.02388888888888889 0.0
0.0 0.024444444444444446 0.0
0.0 0.025 0.0
0.0 0.036111111111111115 0.0
0.0 0.04722222222222222 0.0
0.0 0.058333333333333334 0.0
0.0 0.06944444444444445 0.0
0.0 0.08055555555555556 0.0
0.0 0.09166666666666667 0.0
0.0 0.10277777777777777 0.0
0.0 0.1138888888888889 0.0
0.0 0.125 0.0
0.0 0.12555555555555556 0.0
0.0 0.12611111111111112 0.0
0.0 0.12666666666666668 0.0
0.0 0.1272222222222222 0.0
0.0 0.12777777777777777 0.0
0.0 0.12833333333333333 0.0
0.0 0.1288888888888889 0.0
0.0 0.12944444444444445 0.0
0.0 0.13 0.0
5.555555555555556E-4 0.0 0.0
5.555555555555556E-4 0.0015384615384615385 0.0
5.555555555555556E-4 0.003076923076923077 0.0
5.555555555555556E-4 0.004615384615384615 0.0
5.555555555555556E-4 0.006153846153846154 0.0
5.555555555555556E-4 0.007692307692307693 0.0
5.555555555555556E-4 0.00923076923076923 0.0
5.555555555555556E-4 0.010769230769230769 0.0
5.555555555555556E-4 0.012307692307692308 0.0
5.555555555555556E-4 0.013846153846153847 0.0
5.555555555555556E-4 0.015384615384615385 0.0
5.555555555555556E-4 0.016923076923076923 0.0
5.555555555555556E-4 0.01846153846153846 0.0
5.555555555555556E-4 0.02 0.0
5.555555555555556E-4 0.020555555555555556 0.0
5.555555555555556E-4 0.021111111111111112 0.0
5.555555555555556E-4 0.021666666666666667 0.0
5.555555555555556E-4 0.022222222222222223 0.0
5.555555555555556E-4 0.02277777777777778 0.0
5.555555555555556E-4 0.023333333333333334 0.0
5.555555555555556E-4 0.02388888888888889 0.0
5.555555555555556E-4 0.024444444444444446 0.0
5.555555555555556E-4 0.025 0.0
5.555555555555556E-4 0.036111111111111115 0.0
5.555555555555556E-4 0.04722222222222222 0.0
5.555555555555556E-4 0.058333333333333334 0.0
5.555555555555556E-4 0.06944444444444445 0.0
5.555555555555556E-4 0.08055555555555556 0.0
5.555555555555556E-4 0.09166666666666667 0.0
5.555555555555556E-4 0.10277777777777777 0.0
5.555555555555556E-4 0.1138888888888889 0.0
5.555555555555556E-4 0.125 0.0
5.555555555555556E-4 0.12555555555555556 0.0
5.555555555555556E-4 0.12611111111111112 0.0
5.555555555555556E-4 0.12666666666666668 0.0
5.555555555555556E-4 0.1272222222222222 0.0
5.555555555555556E-4 0.12777777777777777 0.0
5.555555555555556E-4 0.12833333333333333 0.0
5.555555555555556E-4 0.1288888888888889 0.0
5.555555555555556E-4 0.12944444444444445 0.0
5.555555555555556E-4 0.13 0.0
0.0011111111111111111 0.0 0.0
0.0011111111111111111 0.0015384615384615385 0.0
0.0011111111111111111 0.003076923076923077 0.0
0.0011111111111111111 0.004615384615384615 0.0
0.0011111111111111111 0.006153846153846154 0.0
0.0011111111111111111 0.007692307692307693 0.0
0.0011111111111111111 0.00923076923076923 0.0
0.0011111111111111111 0.010769230769230769 0.0
0.0011111111111111111 0.012307692307692308 0.0
0.0011111111111111111 0.013846153846153847 0.0
0.0011111111111111111 0.015384615384615385 0.0
0.0011111111111111111 0.016923076923076923 0.0
0.0011111111111111111 0.01846153846153846 0.0
0.0011111111111111111 0.02 0.0
0.0011111111111111111 0.020555555555555556 0.0
0.0011111111111111111 0.021111111111111112 0.0
0.0011111111111111111 0.021666666666666667 0.0
0.0011111111111111111 0.022222222222222223 0.0
0.0011111111111111111 0.02277777777777778 0.0
0.0011111111111111111 0.023333333333333334 0.0
0.0011111111111111111 0.02388888888888889 0.0
0.0011111111111111111 0.024444444444444446 0.0
0.0011111111111111111 0.025 0.0
0.0011111111111111111 0.036111111111111115 0.0
0.0011111111111111111 0.04722222222222222 0.0
0.0011111111111111111 0.058333333333333334 0.0
0.0011111111111111111 0.06944444444444445 0.0
0.0011111111111111111 0.08055555555555556 0.0
0.0011111111111111111 0.09166666666666667 0.0
0.0011111111111111111 0.10277777777777777 0.0
0.0011111111111111111 0.1138888888888889 0.0
0.0011111111111111111 0.125 0.0
0.0011111111111111111 0.12555555555555556 0.0
0.0011111111111111111 0.12611111111111112 0.0
0.0011111111111111111 0.12666666666666668 0.0
0.0011111111111111111 0.1272222222222222 0.0
0.0011111111111111111 0.12777777777777777 0.0
0.0011111111111111111 0.12833333333333333 0.0
0.0011111111111111111 0.1288888888888889 0.0
0.0011111111111111111 0.12944444444444445 0.0
0.0011111111111111111 0.13 0.0
0.0016666666666666666 0.0 0.0
0.0016666666666666666 0.0015384615384615385 0.0
0.0016666666666666666 0.003076923076923077 0.0
0.0016666666666666666 0.004615384615384615 0.0
0.0016666666666666666 0.006153846153846154 0.0
0.0016666666666666666 0.007692307692307693 0.0
0.0016666666666666666 0.00923076923076923 0.0
0.0016666666666666666 0.010769230769230769 0.0
0.0016666666666666666 0.012307692307692308 0.0
0.0016666666666666666 0.013846153846153847 0.0
0.0016666666666666666 0.015384615384615385 0.0
0.0016666666666666666 0.016923076923076923 0.0
0.0016666666666666666 0.01846153846153846 0.0
0.0016666666666666666 0.02 0.0
0.0016666666666666666 0.020555555555555556 0.0
0.0016666666666666666 0.021111111111111112 0.0
0.0016666666666666666 0.021666666666666667 0.0
0.0016666666666666666 0.022222222222222223 0.0
0.0016666666666666666 0.02277777777777778 0.0
0.0016666666666666666 0.023333333333333334 0.0
0.0016666666666666666 0.02388888888888889 0.0
0.0016666666666666666 0.024444444444444446 0.0
0.0016666666666666666 0.025 0.0
0.0016666666666666666 0.036111111111111115 0.0
0.0016666666666666666 0.04722222222222222 0.0
0.0016666666666666666 0.058333333333333334 0.0
0.0016666666666666666 0.06944444444444445 0.0
0.0016666666666666666 0.08055555555555556 0.0
0.0016666666666666666 0.09166666666666667 0.0
0.0016666666666666666 0.10277777777777777 0.0
0.0016666666666666666 0.1138888888888889 0.0
0.0016666666666666666 0.125 0.0
0.0016666666666666666 0.12555555555555556 0.0
0.0016666666666666666 0.12611111111111112 0.0
0.0016666666666666666 0.12666666666666668 0.0
0.0016666666666666666 0.1272222222222222 0.0
0.0016666666666666666 0.12777777777777777 0.0
0.0016666666666666666 0.12833333333333333 0.0
0.0016666666666666666 0.1288888888888889 0.0
0.0016666666666666666 0.12944444444444445 0.0
0.0016666666666666666 0.13 0.0
0.0022222222222222222 0.0 0.0
0.0022222222222222222 0.0015384615384615385 0.0
0.0022222222222222222 0.003076923076923077 0.0
0.0022222222222222222 0.004615384615384615 0.0
0.0022222222222222222 0.006153846153846154 0.0
0.0022222222222222222 0.007692307692307693 0.0
0.0022222222222222222 0.00923076923076923 0.0
0.0022222222222222222 0.010769230769230769 0.0
0.0022222222222222222 0.012307692307692308 0.0
0.0022222222222222222 0.013846153846153847 0.0
0.0022222222222222222 0.015384615384615385 0.0
0.0022222222222222222 0.016923076923076923 0.0
0.0022222222222222222 0.01846153846153846 0.0
0.0022222222222222222 0.02 0.0
0.0022222222222222222 0.020555555555555556 0.0
0.0022222222222222222 0.021111111111111112 0.0
0.0022222222222222222 0.021666666666666667 0.0
0.0022222222222222222 0.022222222222222223 0.0
0.0022222222222222222 0.02277777777777778 0.0
0.0022222222222222222 0.023333333333333334 0.0
0.0022222222222222222 0.02388888888888889 0.0
0.0022222222222222222 0.024444444444444446 0.0
0.0022222222222222222 0.025 0.0
0.0022222222222222222 0.036111111111111115 0.0
0.0022222222222222222 0.04722222222222222 0.0
0.0022222222222222222 0.058333333333333334 0.0
0.0022222222222222222 0.06944444444444445 0.0
0.0022222222222222222 0.08055555555555556 0.0
0.0022222222222222222 0.09166666666666667 0.0
0.0022222222222222222 0.10277777777777777 0.0
0.0022222222222222222 0.1138888888888889 0.0
0.0022222222222222222 0.125 0.0
0.0022222222222222222 0.12555555555555556 0.0
0.0022222222222222222 0.12611111111111112 0.0
0.0022222222222222222 0.12666666666666668 0.0
0.0022222222222222222 0.1272222222222222 0.0
0.0022222222222222222 0.12777777777777777 0.0
0.0022222222222222222 0.12833333333333333 0.0
0.0022222222222222222 0.1288888888888889 0.0
0.0022222222222222222 0.12944444444444445 0.0
0.0022222222222222222 0.13 0.0
0.002777777777777778 0.0 0.0
0.002777777777777778 0.0015384615384615385 0.0
0.002777777777777778 0.003076923076923077 0.0
0.002777777777777778 0.004615384615384615 0.0
0.002777777777777778 0.006153846153846154 0.0
0.002777777777777778 0.007692307692307693 0.0
0.002777777777777778 0.00923076923076923 0.0
0.002777777777777778 0.010769230769230769 0.0
0.002777777777777778 0.012307692307692308 0.0
0.002777777777777778 0.013846153846153847 0.0
0.002777777777777778 0.015384615384615385 0.0
0.002777777777777778 0.016923076923076923 0.0
0.002777777777777778 0.01846153846153846 0.0
0.002777777777777778 0.02 0.0
0.002777777777777778 0.020555555555555556 0.0
0.002777777777777778 0.021111111111111112 0.0
0.002777777777777778 0.021666666666666667 0.0
0.002777777777777778 0.022222222222222223 0.0
0.002777777777777778 0.02277777777777778 0.0
0.002777777777777778 0.023333333333333334 0.0
0.002777777777777778 0.02388888888888889 0.0
0.002777777777777778 0.024444444444444446 0.0
0.002777777777777778 0.025 0.0
0.002777777777777778 0.036111111111111115 0.0
0.002777777777777778 0.04722222222222222 0.0
0.002777777777777778 0.058333333333333334 0.0
0.002777777777777778 0.06944444444444445 0.0
0.002777777777777778 0.08055555555555556 0.0
0.002777777777777778 0.09166666666666667 0.0
0.002777777777777778 0.10277777777777777 0.0
0.002777777777777778 0.1138888888888889 0.0
0.002777777777777778 0.125 0.0
0.002777777777777778 0.12555555555555556 0.0
0.002777777777777778 0.12611111111111112 0.0
[...]
POINT_DATA 1353
SCALARS Temperatura float 1
LOOKUP_TABLE default
91.19552638482382
90.66212563462567
90.13419492340668
89.61136062091016
89.09328235151254
88.57954488124247
88.06961879321707
87.56281145173611
87.05820173178535
86.55451764201244
86.05000424438978
85.54172668552626
85.02612392616321
84.48390562437605
83.78207109196039
83.11531864018319
82.45950113155756
81.81034676210174
81.1651715599397
80.52222868157929
79.88025294611757
79.23833644028736
78.59589983756511
67.36886147404863
63.293171653505524
62.094458432317154
61.68936988493654
61.5559352768349
61.485067576656924
61.381274735920854
61.06195986731352
60.20098474577805
60.15417091443126
60.107882302935984
60.062195394469654
60.01717377835688
59.972869542748086
59.92932434878259
59.88657010482467
59.84462929142337
59.80351505884968
91.21674798248206
90.68323569829887
90.15516643641836
89.63219892618419
89.1139932377542
88.60013714855955
88.0901037723785
87.58320520438862
87.07852360627477
86.57481223265415
86.07027299123678
85.56232674105772
85.0460827678171
84.51151043318882
83.83995541538272
83.175733010849
82.52126768837417
81.8726240751251
81.22761873001801
80.58463524264741
79.94245501848302
79.30017573400494
78.65720607966843
67.4051822469388
63.33650950611999
62.13750159525955
61.73269798303759
61.59931651730208
61.52848547309045
61.42467284799796
61.10593234061481
60.24280273967413
60.19589492872929
60.14952010130606
60.10375401562286
60.05865958696769
60.01428840731205
59.97068185505986
59.9278717323955
59.885880517835666
59.844721391432074
91.23806649456704
90.70450126565112
90.17633508925164
89.65327772534661
89.13499810368339
88.6210914690206
88.11103962909448
87.60416663639184
87.09957555019889
86.59604786428882
86.09186873609089
85.58455253426473
85.06967902052138
84.54274219754167
83.88448346262993
83.22959815285584
82.57938553216637
81.93334973435006
81.29006604648764
80.6482417679292
80.00676096141005
79.36472210929962
78.72148634940484
67.4170982038518
63.37807220916149
62.18052596482751
61.77743699409191
61.64447766152982
61.57390630201913
61.47023776080583
61.15389304013935
60.28603906200018
60.238945733897104
60.19240774263366
60.14649829357361
60.10127801833614
60.05679688717848
60.01309539734959
59.97020505283962
59.92814835972378
59.88693861234984
91.25951124341587
90.72592332954898
90.19770007016463
89.67459518640706
89.1562941668476
88.6424040587738
88.13242082861075
87.6256887346711
87.12134273367302
86.61821750566857
86.11470886037917
85.60849897986503
85.09617033511246
84.57562683895704
83.92672695600538
83.27969778963113
82.63525694282787
81.99327732034043
81.35302126763611
80.71347955291502
80.07361648745861
79.43248098596204
78.78931466380727
67.40409636415801
63.41811440711062
62.2234629722518
61.82361321386412
61.691413303259765
61.62133922517516
61.51795160637961
61.205881922478284
60.33067067820558
60.28330273771763
60.23652743093769
60.19041285220395
60.14501533234223
60.100382052687166
60.05655224346002
60.013557219894736
59.97141980262797
59.93015364294229
91.28109738791998
90.7475054342746
90.2192596658041
89.6961481766152
89.17787678921056
88.66406851348678
88.15423852012053
87.64775852925486
87.14380619121532
86.64128934453501
86.13873347690203
85.63409578959589
85.12485494727234
84.60989397958281
83.96872462385431
83.32877507547792
82.69035716058464
82.05333969035343
81.4171666706088
80.78097364213184
80.14371386559691
79.50428346712954
78.86167473488051
67.36532071584203
63.45707193100204
62.2661935590278
61.87127144457192
61.74011239827094
61.67079871970079
61.56778236377189
61.261963923488096
60.376656822530045
60.32893036584489
60.281849198834834
60.23547226386694
60.189848863833895
60.14502230978929
60.10103077182354
60.05790613742759
60.015672309097944
59.97434378866394
91.302832926942
90.76925014071615
90.241011550321
89.71793218416461
89.1997395063349
88.68607597058792
88.17648044144998
87.67035840371275
87.16693988048277
86.66521994762753
86.16387537821127
85.66118148225769
85.15528678191635
84.64545570116475
84.01129364416357
83.3780566616069
82.74581611565218
82.11436672240873
81.48318424800686
80.85141989528555
80.21791631940815
79.58127006728165
78.9400105337406
67.29954376869121
63.4955777418146
62.308540719852736
61.92047801369708
61.79055697856392
61.72230546563934
61.619682685622465
61.32223059844572
60.4239366723613
60.37577777654683
60.328332267451444
60.28164317476357
60.2357488695029
60.190688503698915
60.146500819157616
60.10322035172608
60.06087348138883
60.01947633372021
91.32472150319725
90.79115815761156
90.26295247351744
89.73994134900143
89.22187407563155
88.70841522696125
88.19913117431902
87.69346648552239
87.19071126103046
86.68995815975491
86.19005097627218
85.68957824687854
85.18716859576108
84.68224024694615
84.05478408727936
83.42815149879178
82.80228388161993
82.17693115402636
81.55158798861325
80.92542166138445
80.29712861787216
79.66485369169479
79.02631424095362
67.20512140819743
63.53448608303695
62.35025835517592
61.971325284251776
61.84272022818987
61.775887663708176
61.673588166958346
61.386802603997474
60.47242555378492
60.42377882313011
60.3759286266364
60.328888674319444
60.28268202387179
60.23734512286879
60.192923775445124
60.14945860207737
60.10698038011388
60.06550779701135
91.3467636916267
90.81322824354008
90.28507800590937
89.7621684701539
89.24427054946342
88.73107288954424
88.22217244105795
87.71705706315097
87.21508253352995
86.71544608645986
86.21716537434516
85.71911694605292
85.22028163605013
84.72016094622815
84.09932280948694
83.47932689785773
82.86006405749211
82.24129458372018
81.62258879018353
81.00323458371633
80.38205121371463
79.75660057072358
79.12327777648497
67.07992305601677
63.57490747759214
62.391015491275056
62.02393801311851
61.896563772230564
61.83158287368977
61.729414938890535
61.45583329038442
60.52200888286877
60.47285364086405
60.42458867201349
60.37718218279116
60.33061444307171
60.284950707404896
60.240251894912596
60.196568763178576
60.153938359101076
60.11238274774342
91.36895768979674
90.83545732253229
90.30738241510416
89.78460501046378
89.26691736564236
88.75403355452042
88.24558341700059
87.7411011372758
87.24001172418072
86.74162049631069
86.24511834342887
85.74964171380806
85.25444740146351
84.75911233370108
84.14490653185531
83.53163857055569
82.9192031851396
82.30742292359969
81.69601573407046
81.08454357250132
80.47228183699784
79.85808881522509
79.23455293449403
66.9212235140091
63.618258951013054
62.430374357200364
62.07848210460626
61.952033976152755
61.88944043058809
61.78705669388909
61.52951276826305
60.57253650360704
60.522839352544054
60.474349532108675
60.42651013291921
60.37951167372358
60.33345600473284
60.28842628943297
60.24448598341907
60.201679362645656
60.160032165176666
91.39129974934976
90.85784065084928
90.3298586395757
89.80724111894223
89.28980145181747
88.77728000444527
88.26934106652801
87.76556701733648
87.26545369639229
86.7684146092161
86.27380828649383
85.78100795036141
85.28950746113671
84.79897268404792
84.19145181442576
83.58500772110425
82.97956818981467
82.37504627797435
81.77134740193976
81.16839366231977
80.5661823773073
79.96490802081752
64.5795187454994
64.5795187454994
64.5795187454994
64.5795187454994
64.5795187454994
64.5795187454994
64.5795187454994
64.5795187454994
64.5795187454994
64.5795187454994
60.57432450842344
60.525259045544765
60.47686568228161
60.42933159567268
60.382799108959844
60.337373405970446
60.29313005897103
60.250119800725926
60.20837147583854
91.83471563522589
91.30260527732514
90.77799875773715
90.26096212136757
89.75160731603233
89.25010290051152
88.75669134512493
88.27171413237313
87.79564599295566
87.32913950302984
86.87308029403417
86.42865238333223
85.99742029375516
85.58145955116127
85.0777296802683
84.57792684879927
84.08261367816131
83.5923876279583
83.1078869484147
82.62979266994684
82.15882202688746
81.69570517720852
64.5795187454994
64.5795187454994
64.5795187454994
64.5795187454994
64.5795187454994
64.5795187454994
64.5795187454994
64.5795187454994
64.5795187454994
64.5795187454994
61.554858150014404
61.47954028919535
61.409165869755654
61.34350845122059
61.2823860244378
61.22565579575551
61.17320973815416
61.12497150279556
61.080894372448334
92.24503698733369
91.71383970958303
91.19129051438956
90.67743611065549
90.17234901393606
89.67612595641663
89.18888449562205
88.7107567492259
88.24187867323734
87.7823726635883
87.33232060511065
86.89172346465253
86.46043989189423
86.03808667911302
85.52041274839195
85.00469831785533
84.4907537739319
83.97836524260548
83.46728787418951
82.95723961230011
82.44789658808959
81.9388922856721
64.5795187454994
64.5795187454994
64.5795187454994
64.5795187454994
64.5795187454994
64.5795187454994
64.5795187454994
64.5795187454994
64.5795187454994
64.5795187454994
61.82099787970051
61.76293368393409
61.70670451329382
61.65243136874764
61.60020978190545
61.550113183264706
61.50219561932999
61.456493715292524
61.41302800929249
92.57103775664845
92.04009262019933
91.51774969513008
91.00401712177411
90.49890269255731
90.00241239193308
89.51454856484942
89.03530796949102
88.56468019245192
88.10264725366864
87.64918572824531
87.20427353160413
86.76790539157601
86.34012521549472
85.81588814995979
85.29388802551641
84.77417059546279
84.25679130893178
83.74181872276645
83.229338082765
82.71945484110144
82.21229759968115
64.5795187454994
64.5795187454994
64.5795187454994
64.5795187454994
64.5795187454994
64.5795187454994
64.5795187454994
64.5795187454994
64.5795187454994
64.5795187454994
61.91922765290891
61.860821094653645
61.8046285826222
61.75061000010024
61.69873430336846
61.64897782617138
61.601322949177955
61.55575713314363
61.51227226077269
92.80771361429672
92.27682807581898
91.75427210873409
91.2400493017054
90.73416116623545
90.23660730724298
89.74738569356248
89.2664930428523
88.79392528909253
88.3296780016832
87.87374644606773
87.42612463666495
86.98680196867161
86.5557543412093
86.02716637972813
85.50070244944423
84.97634751206243
84.45408308327639
83.93388587721977
83.41572628947524
82.89956674654835
82.38536002253639
64.5795187454994
64.5795187454994
64.5795187454994
64.5795187454994
64.5795187454994
64.5795187454994
64.5795187454994
64.5795187454994
64.5795187454994
64.5795187454994
61.94894068126329
61.891820407653434
61.8366289652068
61.7833787010437
61.73207842360357
61.68273411164469
61.63534945889071
61.58992626742274
61.54646471384998
92.96653689561913
92.43568136564541
91.91295368524281
91.39835774885717
90.89189557143563
90.39356726188174
89.90337096764051
89.42130277274276
88.94735653624655
88.4815236768358
88.0237929547821
87.57415040701173
87.13257985002723
86.69906496571647
86.1672830885379
85.63761526688118
85.11006173023632
84.58462373250083
84.06130403288202
83.54010746096381
83.02104157241295
82.50411738399728
64.5795187454994
64.5795187454994
64.5795187454994
64.5795187454994
64.5795187454994
64.5795187454994
64.5795187454994
64.5795187454994
64.5795187454994
64.5795187454994
61.959105859707776
61.902074363906586
61.846994784995026
61.7938615471083
61.74267013409286
61.69341681647139
61.64609844568891
61.6007123070084
61.557256020906436
93.05776039502052
92.52692082653128
92.00409060058259
91.48927352669781
90.98247155319056
90.48368476589297
89.99291139301825
89.51014782340556
89.03538864704967
88.56862672581488
88.10985329419424
87.65905806279946
87.21622921577469
86.78135298300893
86.24781061639803
85.71636713501324
85.18701961824274
84.65976475798767
84.13459868874651
83.6115167784979
83.09051337263493
82.57158148712911
64.5795187454994
64.5795187454994
64.5795187454994
64.5795187454994
64.5795187454994
64.5795187454994
64.5795187454994
64.5795187454994
64.5795187454994
64.5795187454994
61.96222002250481
61.90529456148971
61.85029634689139
61.79722498155354
61.74607963618286
61.696859154586186
61.64956213131977
61.60418696640258
61.5607319015468
93.0874971792252
92.55666262272919
92.03379842132539
91.51890843486021
91.01199472454027
90.5130575599571
90.02209542721164
89.53910503460452
89.06408131051917
88.59701738676004
88.13790456195836
87.68673225054663
87.2434879637495
86.80815748611431
86.27402558853589
85.74198866652311
85.21204480428906
84.68419222331306
84.1584293798752
83.6347550886691
83.1131686790695
82.59367018930395
64.5795187454994
64.5795187454994
64.5795187454994
64.5795187454994
64.5795187454994
64.5795187454994
64.5795187454994
64.5795187454994
64.5795187454994
64.5795187454994
61.96294920338308
61.90603013770743
61.8510411877595
61.797979933319326
61.74684414057162
61.697631697969335
61.650340569574965
61.60496876253993
61.5615143057819
93.05776039502103
92.52692082653179
92.00409060058305
91.48927352669827
90.98247155319096
90.48368476589332
89.99291139301859
89.51014782340593
89.03538864705007
88.56862672581529
88.10985329419466
87.65905806279991
87.21622921577517
86.7813529830094
86.24781061639852
85.71636713501371
85.18701961824321
84.65976475798813
84.13459868874695
83.61151677849833
83.09051337263536
82.57158148712956
64.5795187454994
64.5795187454994
64.5795187454994
64.5795187454994
64.5795187454994
64.5795187454994
64.5795187454994
64.5795187454994
64.5795187454994
64.5795187454994
61.96222002250543
61.90529456149035
61.85029634689204
61.7972249815542
61.74607963618353
61.69685915458689
61.64956213132048
61.60418696640328
61.5607319015475
92.96653689561994
92.43568136564622
91.91295368524362
91.39835774885796
90.89189557143642
90.39356726188251
89.90337096764124
89.42130277274347
88.94735653624723
88.48152367683647
88.02379295478276
87.57415040701241
87.13257985002792
86.69906496571721
86.16728308853862
85.6376152668819
85.11006173023704
84.58462373250153
84.06130403288273
83.54010746096453
83.0210415724137
82.504117383998
64.5795187454994
64.5795187454994
64.5795187454994
64.5795187454994
64.5795187454994
64.5795187454994
64.5795187454994
64.5795187454994
64.5795187454994
64.5795187454994
61.95910585970918
61.90207436390801
61.84699478499649
61.7938615471098
61.74267013409437
61.693416816472876
61.64609844569041
61.60071230700992
61.55725602090796
92.80771361429733
92.27682807581954
91.75427210873458
91.24004930170585
90.73416116623589
90.2366073072434
89.74738569356288
89.26649304285266
88.79392528909287
88.32967800168353
87.87374644606813
87.42612463666536
86.98680196867208
86.55575434120978
86.02716637972865
85.50070244944474
84.97634751206293
84.45408308327686
83.93388587722015
83.41572628947556
82.89956674654862
82.38536002253663
64.5795187454994
64.5795187454994
64.5795187454994
64.5795187454994
64.5795187454994
64.5795187454994
64.5795187454994
64.5795187454994
64.5795187454994
64.5795187454994
61.94894068126688
61.891820407657136
61.83662896521055
61.783378701047454
61.7320784236073
61.68273411164838
61.635349458894304
61.589926267426236
61.546464713853446
92.57103775664878
92.04009262019967
91.51774969513048
91.00401712177455
90.49890269255779
90.00241239193358
89.51454856484993
89.03530796949151
88.56468019245244
88.10264725366915
87.64918572824578
87.20427353160458
86.76790539157642
86.3401252154951
85.81588814996019
85.29388802551674
84.77417059546313
84.25679130893218
83.74181872276694
83.22933808276554
82.71945484110198
82.21229759968166
64.5795187454994
64.5795187454994
64.5795187454994
64.5795187454994
64.5795187454994
64.5795187454994
64.5795187454994
64.5795187454994
64.5795187454994
64.5795187454994
61.919227652911765
61.86082109465655
61.80462858262517
61.75061000010328
61.698734303371566
61.64897782617453
61.60132294918116
61.55575713314689
61.512272260775966
92.24503698733342
91.71383970958274
91.19129051438925
90.67743611065512
90.17234901393564
89.67612595641626
89.18888449562169
88.71075674922555
88.24187867323698
87.782372663588
87.33232060511044
86.89172346465237
86.46043989189408
86.0380866791129
85.52041274839179
85.00469831785524
84.4907537739318
83.97836524260539
83.46728787418937
82.95723961229993
82.44789658808938
81.93889228567186
64.5795187454994
64.5795187454994
64.5795187454994
64.5795187454994
64.5795187454994
64.5795187454994
64.5795187454994
64.5795187454994
64.5795187454994
64.5795187454994
61.82099787970268
61.76293368393629
61.70670451329603
61.652431368749845
61.60020978190766
61.550113183266916
61.502195619332156
61.456493715294656
61.41302800929462
91.83471563522517
91.30260527732443
90.77799875773644
90.26096212136687
89.75160731603165
89.25010290051088
88.75669134512434
88.27171413237252
87.79564599295506
87.3291395030293
86.87308029403371
86.42865238333185
85.9974202937548
85.58145955116098
85.07772968026805
84.577926848799
84.08261367816108
83.59238762795805
83.10788694841445
82.62979266994655
82.15882202688714
81.69570517720821
64.5795187454994
64.5795187454994
64.5795187454994
64.5795187454994
64.5795187454994
64.5795187454994
64.5795187454994
64.5795187454994
64.5795187454994
64.5795187454994
61.55485815001587
61.47954028919685
61.40916586975721
61.34350845122219
61.282386024439404
61.22565579575712
61.1732097381558
61.12497150279724
61.08089437245001
91.39129974934876
90.85784065084827
90.32985863957482
89.80724111894152
89.28980145181688
88.77728000444485
88.26934106652757
87.76556701733608
87.26545369639197
86.76841460921574
86.27380828649338
85.78100795036094
85.28950746113632
84.79897268404757
84.19145181442553
83.58500772110413
82.97956818981467
82.37504627797448
81.77134740193999
81.16839366232007
80.5661823773077
79.96490802081789
64.5795187454994
64.5795187454994
64.5795187454994
64.5795187454994
64.5795187454994
64.5795187454994
64.5795187454994
64.5795187454994
64.5795187454994
64.5795187454994
60.5743245084251
60.52525904554646
60.476865682283325
60.42933159567441
60.38279910896161
60.33737340597224
60.2931300589728
60.25011980072763
60.20837147584024
91.36895768979574
90.83545732253123
90.3073824151033
89.78460501046307
89.26691736564179
88.75403355452003
88.24558341700013
87.74110113727542
87.24001172418035
86.74162049631029
86.24511834342836
85.74964171380753
85.25444740146308
84.7591123337008
84.14490653185511
83.53163857055556
82.91920318513958
82.30742292359979
81.69601573407068
81.08454357250167
80.47228183699819
79.85808881522546
79.23455293449437
66.92122351401076
63.61825895101309
62.43037435720032
62.07848210460734
61.95203397615308
61.88944043058883
61.78705669388971
61.5295127682622
60.57253650360862
60.52283935254573
60.47434953211034
60.426510132920896
60.37951167372534
60.333456004734536
60.288426289434675
60.24448598342075
60.20167936264735
60.16003216517834
91.34676369162564
90.81322824353903
90.28507800590853
89.76216847015323
89.24427054946291
88.73107288954385
88.22217244105752
87.71705706315059
87.21508253352958
86.7154460864595
86.21716537434465
85.71911694605238
85.22028163604968
84.72016094622786
84.09932280948675
83.47932689785762
82.86006405749218
82.2412945837203
81.62258879018374
81.00323458371666
80.38205121371503
79.75660057072398
79.12327777648538
67.07992305601847
63.574907477592184
62.39101549127506
62.023938013119675
61.896563772230884
61.83158287369055
61.72941493889117
61.455833290383566
60.52200888287036
60.47285364086565
60.424588672015176
60.377182182792815
60.33061444307337
60.284950707406544
60.24025189491423
60.1965687631802
60.153938359102696
60.11238274774503
91.32472150319617
90.79115815761055
90.26295247351658
89.73994134900069
89.22187407563102
88.70841522696084
88.19913117431858
87.69346648552198
87.19071126103006
86.6899581597545
86.19005097627165
85.6895782468781
85.18716859576062
84.6822402469459
84.05478408727917
83.42815149879166
82.80228388161996
82.17693115402646
81.55158798861348
80.92542166138479
80.29712861787253
79.6648536916952
79.02631424095405
67.20512140819916
63.53448608303708
62.35025835517592
61.971325284252956
61.84272022819015
61.77588766370893
61.673588166959135
61.386802603996586
60.472425553786536
60.42377882313174
60.37592862663803
60.32888867432109
60.28268202387345
60.2373451228704
60.192923775446694
60.14945860207895
60.10698038011546
60.06550779701295
91.30283292694087
90.76925014071517
90.24101155032008
89.71793218416391
89.19973950633432
88.68607597058745
88.17648044144953
87.67035840371233
87.16693988048237