# vtk DataFile Version 2.0
Niestacjonarne zagadnienie cieplne - ogrzewanie wody w garnku stalowym
ASCII
DATASET UNSTRUCTURED_GRID
POINTS 1353 float
0.0 0.0 0.0
0.0 0.0015384615384615385 0.0
0.0 0.003076923076923077 0.0
0.0 0.004615384615384615 0.0
0.0 0.006153846153846154 0.0
0.0 0.007692307692307693 0.0
0.0 0.00923076923076923 0.0
0.0 0.010769230769230769 0.0
0.0 0.012307692307692308 0.0
0.0 0.013846153846153847 0.0
0.0 0.015384615384615385 0.0
0.0 0.016923076923076923 0.0
0.0 0.01846153846153846 0.0
0.0 0.02 0.0
0.0 0.020555555555555556 0.0
0.0 0.021111111111111112 0.0
0.0 0.021666666666666667 0.0
0.0 0.022222222222222223 0.0
0.0 0.02277777777777778 0.0
0.0 0.023333333333333334 0.0
0.0 0.02388888888888889 0.0
0.0 0.024444444444444446 0.0
0.0 0.025 0.0
0.0 0.036111111111111115 0.0
0.0 0.04722222222222222 0.0
0.0 0.058333333333333334 0.0
0.0 0.06944444444444445 0.0
0.0 0.08055555555555556 0.0
0.0 0.09166666666666667 0.0
0.0 0.10277777777777777 0.0
0.0 0.1138888888888889 0.0
0.0 0.125 0.0
0.0 0.12555555555555556 0.0
0.0 0.12611111111111112 0.0
0.0 0.12666666666666668 0.0
0.0 0.1272222222222222 0.0
0.0 0.12777777777777777 0.0
0.0 0.12833333333333333 0.0
0.0 0.1288888888888889 0.0
0.0 0.12944444444444445 0.0
0.0 0.13 0.0
5.555555555555556E-4 0.0 0.0
5.555555555555556E-4 0.0015384615384615385 0.0
5.555555555555556E-4 0.003076923076923077 0.0
5.555555555555556E-4 0.004615384615384615 0.0
5.555555555555556E-4 0.006153846153846154 0.0
5.555555555555556E-4 0.007692307692307693 0.0
5.555555555555556E-4 0.00923076923076923 0.0
5.555555555555556E-4 0.010769230769230769 0.0
5.555555555555556E-4 0.012307692307692308 0.0
5.555555555555556E-4 0.013846153846153847 0.0
5.555555555555556E-4 0.015384615384615385 0.0
5.555555555555556E-4 0.016923076923076923 0.0
5.555555555555556E-4 0.01846153846153846 0.0
5.555555555555556E-4 0.02 0.0
5.555555555555556E-4 0.020555555555555556 0.0
5.555555555555556E-4 0.021111111111111112 0.0
5.555555555555556E-4 0.021666666666666667 0.0
5.555555555555556E-4 0.022222222222222223 0.0
5.555555555555556E-4 0.02277777777777778 0.0
5.555555555555556E-4 0.023333333333333334 0.0
5.555555555555556E-4 0.02388888888888889 0.0
5.555555555555556E-4 0.024444444444444446 0.0
5.555555555555556E-4 0.025 0.0
5.555555555555556E-4 0.036111111111111115 0.0
5.555555555555556E-4 0.04722222222222222 0.0
5.555555555555556E-4 0.058333333333333334 0.0
5.555555555555556E-4 0.06944444444444445 0.0
5.555555555555556E-4 0.08055555555555556 0.0
5.555555555555556E-4 0.09166666666666667 0.0
5.555555555555556E-4 0.10277777777777777 0.0
5.555555555555556E-4 0.1138888888888889 0.0
5.555555555555556E-4 0.125 0.0
5.555555555555556E-4 0.12555555555555556 0.0
5.555555555555556E-4 0.12611111111111112 0.0
5.555555555555556E-4 0.12666666666666668 0.0
5.555555555555556E-4 0.1272222222222222 0.0
5.555555555555556E-4 0.12777777777777777 0.0
5.555555555555556E-4 0.12833333333333333 0.0
5.555555555555556E-4 0.1288888888888889 0.0
5.555555555555556E-4 0.12944444444444445 0.0
5.555555555555556E-4 0.13 0.0
0.0011111111111111111 0.0 0.0
0.0011111111111111111 0.0015384615384615385 0.0
0.0011111111111111111 0.003076923076923077 0.0
0.0011111111111111111 0.004615384615384615 0.0
0.0011111111111111111 0.006153846153846154 0.0
0.0011111111111111111 0.007692307692307693 0.0
0.0011111111111111111 0.00923076923076923 0.0
0.0011111111111111111 0.010769230769230769 0.0
0.0011111111111111111 0.012307692307692308 0.0
0.0011111111111111111 0.013846153846153847 0.0
0.0011111111111111111 0.015384615384615385 0.0
0.0011111111111111111 0.016923076923076923 0.0
0.0011111111111111111 0.01846153846153846 0.0
0.0011111111111111111 0.02 0.0
0.0011111111111111111 0.020555555555555556 0.0
0.0011111111111111111 0.021111111111111112 0.0
0.0011111111111111111 0.021666666666666667 0.0
0.0011111111111111111 0.022222222222222223 0.0
0.0011111111111111111 0.02277777777777778 0.0
0.0011111111111111111 0.023333333333333334 0.0
0.0011111111111111111 0.02388888888888889 0.0
0.0011111111111111111 0.024444444444444446 0.0
0.0011111111111111111 0.025 0.0
0.0011111111111111111 0.036111111111111115 0.0
0.0011111111111111111 0.04722222222222222 0.0
0.0011111111111111111 0.058333333333333334 0.0
0.0011111111111111111 0.06944444444444445 0.0
0.0011111111111111111 0.08055555555555556 0.0
0.0011111111111111111 0.09166666666666667 0.0
0.0011111111111111111 0.10277777777777777 0.0
0.0011111111111111111 0.1138888888888889 0.0
0.0011111111111111111 0.125 0.0
0.0011111111111111111 0.12555555555555556 0.0
0.0011111111111111111 0.12611111111111112 0.0
0.0011111111111111111 0.12666666666666668 0.0
0.0011111111111111111 0.1272222222222222 0.0
0.0011111111111111111 0.12777777777777777 0.0
0.0011111111111111111 0.12833333333333333 0.0
0.0011111111111111111 0.1288888888888889 0.0
0.0011111111111111111 0.12944444444444445 0.0
0.0011111111111111111 0.13 0.0
0.0016666666666666666 0.0 0.0
0.0016666666666666666 0.0015384615384615385 0.0
0.0016666666666666666 0.003076923076923077 0.0
0.0016666666666666666 0.004615384615384615 0.0
0.0016666666666666666 0.006153846153846154 0.0
0.0016666666666666666 0.007692307692307693 0.0
0.0016666666666666666 0.00923076923076923 0.0
0.0016666666666666666 0.010769230769230769 0.0
0.0016666666666666666 0.012307692307692308 0.0
0.0016666666666666666 0.013846153846153847 0.0
0.0016666666666666666 0.015384615384615385 0.0
0.0016666666666666666 0.016923076923076923 0.0
0.0016666666666666666 0.01846153846153846 0.0
0.0016666666666666666 0.02 0.0
0.0016666666666666666 0.020555555555555556 0.0
0.0016666666666666666 0.021111111111111112 0.0
0.0016666666666666666 0.021666666666666667 0.0
0.0016666666666666666 0.022222222222222223 0.0
0.0016666666666666666 0.02277777777777778 0.0
0.0016666666666666666 0.023333333333333334 0.0
0.0016666666666666666 0.02388888888888889 0.0
0.0016666666666666666 0.024444444444444446 0.0
0.0016666666666666666 0.025 0.0
0.0016666666666666666 0.036111111111111115 0.0
0.0016666666666666666 0.04722222222222222 0.0
0.0016666666666666666 0.058333333333333334 0.0
0.0016666666666666666 0.06944444444444445 0.0
0.0016666666666666666 0.08055555555555556 0.0
0.0016666666666666666 0.09166666666666667 0.0
0.0016666666666666666 0.10277777777777777 0.0
0.0016666666666666666 0.1138888888888889 0.0
0.0016666666666666666 0.125 0.0
0.0016666666666666666 0.12555555555555556 0.0
0.0016666666666666666 0.12611111111111112 0.0
0.0016666666666666666 0.12666666666666668 0.0
0.0016666666666666666 0.1272222222222222 0.0
0.0016666666666666666 0.12777777777777777 0.0
0.0016666666666666666 0.12833333333333333 0.0
0.0016666666666666666 0.1288888888888889 0.0
0.0016666666666666666 0.12944444444444445 0.0
0.0016666666666666666 0.13 0.0
0.0022222222222222222 0.0 0.0
0.0022222222222222222 0.0015384615384615385 0.0
0.0022222222222222222 0.003076923076923077 0.0
0.0022222222222222222 0.004615384615384615 0.0
0.0022222222222222222 0.006153846153846154 0.0
0.0022222222222222222 0.007692307692307693 0.0
0.0022222222222222222 0.00923076923076923 0.0
0.0022222222222222222 0.010769230769230769 0.0
0.0022222222222222222 0.012307692307692308 0.0
0.0022222222222222222 0.013846153846153847 0.0
0.0022222222222222222 0.015384615384615385 0.0
0.0022222222222222222 0.016923076923076923 0.0
0.0022222222222222222 0.01846153846153846 0.0
0.0022222222222222222 0.02 0.0
0.0022222222222222222 0.020555555555555556 0.0
0.0022222222222222222 0.021111111111111112 0.0
0.0022222222222222222 0.021666666666666667 0.0
0.0022222222222222222 0.022222222222222223 0.0
0.0022222222222222222 0.02277777777777778 0.0
0.0022222222222222222 0.023333333333333334 0.0
0.0022222222222222222 0.02388888888888889 0.0
0.0022222222222222222 0.024444444444444446 0.0
0.0022222222222222222 0.025 0.0
0.0022222222222222222 0.036111111111111115 0.0
0.0022222222222222222 0.04722222222222222 0.0
0.0022222222222222222 0.058333333333333334 0.0
0.0022222222222222222 0.06944444444444445 0.0
0.0022222222222222222 0.08055555555555556 0.0
0.0022222222222222222 0.09166666666666667 0.0
0.0022222222222222222 0.10277777777777777 0.0
0.0022222222222222222 0.1138888888888889 0.0
0.0022222222222222222 0.125 0.0
0.0022222222222222222 0.12555555555555556 0.0
0.0022222222222222222 0.12611111111111112 0.0
0.0022222222222222222 0.12666666666666668 0.0
0.0022222222222222222 0.1272222222222222 0.0
0.0022222222222222222 0.12777777777777777 0.0
0.0022222222222222222 0.12833333333333333 0.0
0.0022222222222222222 0.1288888888888889 0.0
0.0022222222222222222 0.12944444444444445 0.0
0.0022222222222222222 0.13 0.0
0.002777777777777778 0.0 0.0
0.002777777777777778 0.0015384615384615385 0.0
0.002777777777777778 0.003076923076923077 0.0
0.002777777777777778 0.004615384615384615 0.0
0.002777777777777778 0.006153846153846154 0.0
0.002777777777777778 0.007692307692307693 0.0
0.002777777777777778 0.00923076923076923 0.0
0.002777777777777778 0.010769230769230769 0.0
0.002777777777777778 0.012307692307692308 0.0
0.002777777777777778 0.013846153846153847 0.0
0.002777777777777778 0.015384615384615385 0.0
0.002777777777777778 0.016923076923076923 0.0
0.002777777777777778 0.01846153846153846 0.0
0.002777777777777778 0.02 0.0
0.002777777777777778 0.020555555555555556 0.0
0.002777777777777778 0.021111111111111112 0.0
0.002777777777777778 0.021666666666666667 0.0
0.002777777777777778 0.022222222222222223 0.0
0.002777777777777778 0.02277777777777778 0.0
0.002777777777777778 0.023333333333333334 0.0
0.002777777777777778 0.02388888888888889 0.0
0.002777777777777778 0.024444444444444446 0.0
0.002777777777777778 0.025 0.0
0.002777777777777778 0.036111111111111115 0.0
0.002777777777777778 0.04722222222222222 0.0
0.002777777777777778 0.058333333333333334 0.0
0.002777777777777778 0.06944444444444445 0.0
0.002777777777777778 0.08055555555555556 0.0
0.002777777777777778 0.09166666666666667 0.0
0.002777777777777778 0.10277777777777777 0.0
0.002777777777777778 0.1138888888888889 0.0
0.002777777777777778 0.125 0.0
0.002777777777777778 0.12555555555555556 0.0
0.002777777777777778 0.12611111111111112 0.0
[...]
POINT_DATA 1353
SCALARS Temperatura float 1
LOOKUP_TABLE default
80.60412691701875
80.06223579930996
79.52629545355325
78.9959414379474
78.47084923534298
77.95062753161547
77.43478124026038
76.92266657971236
76.41343229557765
75.90591207566622
75.39850707812795
74.88859470353104
74.37297808593793
73.83528056634292
73.14396025267688
72.48206586316188
71.82934564098177
71.1821445011297
70.538136370162
69.8957845573559
69.25396754805489
68.61188355189097
67.96903677105706
56.71553182065482
52.62862435990149
51.427076388694985
51.02152944176574
50.88966225108767
50.82477021118861
50.73907722743024
50.481056556020775
49.7891155168038
49.75229892773296
49.71604982785931
49.68045015071124
49.645570645752755
49.611470968206106
49.578199768210816
49.545794729557386
49.51428255385089
49.4836789153674
80.62219675275728
80.08019139016642
79.5441095428017
79.01361908495728
78.48839586464159
77.96805143298147
77.45209302324228
76.9398810597662
76.43056735340333
75.92300708941724
75.4155660061399
74.90591905816778
74.38976088481684
73.8584379252949
73.19233742987345
72.53249282248912
71.88083843332952
71.23399930722113
70.59006537916224
69.94760575056642
69.30553344975148
68.66304599835634
68.01963184405102
56.74097957403769
52.661124606947595
51.45927817403996
51.05401714458062
50.92220234670646
50.85734305814021
50.771633018064236
50.51408883625797
49.82033583982109
49.78343404344967
49.7471059405467
49.7114335279065
49.67648756442202
49.64232771289692
49.60900265358347
49.57655012172149
49.54499687503517
49.51435862861821
80.64036443107658
80.09830304666677
79.56212020496233
79.03153467716655
78.50623091707632
77.98582751619543
77.4698396656044
76.95763856475813
76.44839447694599
75.94098750175178
75.43385468010794
74.92475135970298
74.40976771339012
73.88485397180277
73.22988359965733
72.57786172751918
71.92978441964627
71.2851462892781
70.64266543350031
70.00117215997646
69.3596520840354
68.71728680587239
68.07350685233419
56.742062685037574
52.69198360404104
51.491593145923005
51.088050684288184
50.95665266630983
50.89202871848548
50.806435358353454
50.550864494475086
49.853073804682026
49.81599154545041
49.77950055221512
49.74368276665332
49.70860877584383
49.67433811985192
49.64091947535251
49.60839067623158
49.576778616925985
49.546099118443024
80.65865941631695
80.1165719090127
79.5803267926052
79.04968657809492
78.52435186136256
78.00395232899149
77.48801615229927
76.97593271723491
76.46690059328787
75.95984651519194
75.45330290260775
74.94516923348536
74.43237689822197
73.91288602239581
73.26584342271188
72.6204968461481
71.97735651246266
71.33622180849102
70.69637655017175
70.05687323478136
69.41674216238889
68.77509384064253
68.13122507569872
56.71826884867694
52.72145654042208
51.523952738849076
51.123656487847775
50.99300824978801
50.928835563152255
50.843469967284065
50.591416738336356
49.88731394550328
49.849955761294815
49.81321813013998
49.77718256624883
49.74191912416247
49.70748702580022
49.67393494402116
49.64130094049919
49.60961220382444
49.578884773756464
80.67709710237452
80.1350017653899
79.59872786409666
79.0680719791872
78.54275447093693
78.02242002729982
77.50661442940336
76.99475181083965
76.48606870648949
75.97955602063367
75.47385862238089
74.96711121791603
74.45699987331895
73.9423075446121
73.30191684901507
72.6626858180105
72.02478639449401
71.38801196814623
70.75178953205088
70.11527431511946
69.47745590270199
68.83727131507146
68.19375312375364
56.66874293281185
52.74998012500828
51.556237792405135
51.160879481704946
51.0312587323455
50.96777660684105
50.88271090753802
50.63579910162098
49.92302874786221
49.88529921119211
49.84823179621558
49.81190670002355
49.776392734460785
49.74174851407606
49.70802284969094
49.67525435916566
49.64347083688883
49.6126887260602
80.69568581394726
80.15359551471971
79.61732146985078
79.08668681635301
78.56143284898825
78.04122251379776
77.52562333050751
77.01407991334595
76.50587545507935
76.0000776035758
75.49546284761907
74.99043867965044
74.48325977164343
73.97304003068469
73.33877898324376
72.7054445382854
72.07301094436873
71.44121031443852
70.80949108897389
70.17700435006347
69.54260920324651
68.90492656867194
68.26251278854726
56.59225825582333
52.77818860833579
51.588271071277205
51.199786105338035
51.07138709764969
51.008870285844196
50.92411966517627
50.68408655977181
49.96017753045289
49.921982028651136
49.88450331883103
49.847818451790666
49.81199348395432
49.77708618932581
49.74314607309718
49.71021314767802
49.678316306153555
49.64747264481712
80.71442960739367
80.1723542946401
79.63610483626385
79.10552579496478
78.58037946658435
78.06034954109049
77.54502879810431
77.03389720502959
76.52629161407003
76.02136582062549
75.51804212701198
75.01499828537472
74.51090205376224
74.00501472490544
73.37670912982277
72.74926493504651
72.12255495997485
71.49628039200006
70.86990914917938
70.24260085878723
69.61305727880449
68.97943602199493
68.33947043983692
56.48717113995313
52.806938024823424
51.619806090828924
51.240468811450434
51.11336781331811
51.05214160850575
50.96764381196425
50.73637715671825
49.99870473561856
49.959950808430044
49.921983507884605
49.88487172981114
49.848676261024885
49.813453406097096
49.77925645616841
49.74612802126723
49.71409867500113
49.68318641281747
80.73332955533364
80.19127737940397
79.65507410562235
79.12458238984244
78.59958522409677
78.07978884331722
77.56481414196193
77.05418034289875
76.54728315230957
76.04336905181408
75.54151283039256
75.04064288904972
74.53973588325782
74.0381470017193
73.41579398506771
72.79434374989964
72.17363851508142
71.55340204814372
70.93318235044728
70.31225856273609
69.6894522613211
69.06232844193669
68.42728994995213
56.351350792538085
52.83734128010281
51.650511308934334
51.28305240678745
51.157164207200665
51.097623748042125
51.013215196426515
50.792794206403364
50.03853752436472
49.99913620371369
49.96061082714679
49.92301820831068
49.88638757141119
49.850793069736774
49.81629433768157
49.78293770611378
49.75075581340474
49.719767672022584
80.75238443259614
80.2103622906742
79.67422420647193
79.14384884148579
78.6190395285942
78.09952629311486
77.58496031280488
77.07490294005844
76.56881216509878
76.06603071074534
75.5657861918172
75.06723544106602
74.56960242068006
74.07233357042848
73.4560057156185
72.84069110788526
72.22625049124807
71.61248005510451
70.99908088225318
70.38560808321704
69.77133971464059
69.15515208428711
68.52959364643819
56.18207102525984
52.87081843137608
51.67994818283559
51.32770277514409
51.2027248930638
51.145360101627475
51.060747873815394
50.85348809646609
50.079586470497084
50.03938061709914
50.00037004757501
49.96220479125207
49.92506457014093
49.88903644764283
49.85418761758868
49.820568208696145
49.78821280034344
49.75714127151644
80.7715911426233
80.22960495886885
79.69354882067496
79.16331616909322
78.63873038398314
78.11954607516864
77.60544619783377
77.09603608581106
76.5908377503211
76.089290782917
75.59077168420971
75.09464742809682
74.60035826365385
74.10745527516802
73.49724506928408
72.88819711767276
72.28021649877154
71.67319821969838
71.06703591069555
70.46164739694484
69.85703425327478
69.25340439985712
53.50712178748645
53.50712178748645
53.50712178748645
53.50712178748645
53.50712178748645
53.50712178748645
53.50712178748645
53.50712178748645
53.50712178748645
53.50712178748645
50.08105923923932
50.041217322805224
50.00236823097395
49.964631036014225
49.92810100852586
49.89285039392512
49.85893192530397
49.82638128471589
49.79521870821133
81.15660002946039
80.61584183102127
80.08289165277817
79.55781085375287
79.04070287967383
78.53172314747471
78.03109512470529
77.5391337719311
77.05627770279786
76.58313147874601
76.1205188514138
75.66954741951056
75.23169146316025
74.80892068883382
74.29658997461343
73.7881976889061
73.28427989460447
72.78540506339733
72.29217930595878
71.80524766381562
71.32528680733644
70.8529810231938
53.50712178748645
53.50712178748645
53.50712178748645
53.50712178748645
53.50712178748645
53.50712178748645
53.50712178748645
53.50712178748645
53.50712178748645
53.50712178748645
50.87463163389322
50.81258658740342
50.7550609585712
50.701874710894884
50.65288102785499
50.60796365183052
50.56703402359258
50.53002918245771
50.49691033113199
81.51661718338428
80.97670060597447
80.44567694897613
79.92359043103824
79.41050937990991
78.90652482337151
78.41174742060741
77.92630173207193
77.4503163305445
76.98390760993594
76.52715443018212
76.08005962466149
75.64249099379504
75.21408590119344
74.68911987487935
74.16623459507387
73.6452502816019
73.12596430491625
72.60814491946606
72.09152551217618
71.57580053073849
71.06062524229903
53.50712178748645
53.50712178748645
53.50712178748645
53.50712178748645
53.50712178748645
53.50712178748645
53.50712178748645
53.50712178748645
53.50712178748645
53.50712178748645
51.08831604596415
51.040411284862685
50.99448879673595
50.95064595116995
50.908960073368654
50.86949075375798
50.832281857864295
50.79736301832019
50.764750664610716
81.80345385874466
81.26376873393822
80.73295477506683
80.21102042046662
79.69797387522762
79.19382173934726
78.69856728302805
78.21220860344312
77.73473710850162
77.26613711209235
76.80638782337203
76.35546983194739
75.91337997843293
75.48016233320806
74.9494114531237
74.42101034143302
73.89500300778708
73.37144262999568
72.85039476558224
72.3319407072328
71.81618073760552
71.30323676628933
53.50712178748645
53.50712178748645
53.50712178748645
53.50712178748645
53.50712178748645
53.50712178748645
53.50712178748645
53.50712178748645
53.50712178748645
53.50712178748645
51.167337726747554
51.119094406791376
51.073150473669
51.029472748938204
50.988035292353544
50.94881813543501
50.91180624873929
50.87698877932105
50.84435852698854
82.01166399369585
81.4720321498251
80.94103322772887
80.41867138957176
79.90494893001379
79.39986643654335
78.90342304474015
78.41561680395155
77.93644512533727
77.46590518895094
77.00399401102626
76.55070753907098
76.10603741161513
75.66996246075593
75.13539785812989
74.60307833943442
74.0729899601453
73.54511551003758
73.01943323263555
72.49591539635996
71.97452675042395
71.45522297057778
53.50712178748645
53.50712178748645
53.50712178748645
53.50712178748645
53.50712178748645
53.50712178748645
53.50712178748645
53.50712178748645
53.50712178748645
53.50712178748645
51.19111953328549
51.14392264383644
51.09879245700916
51.05573858799601
51.014767797040015
50.975884537657194
50.93909138826708
50.90438936743448
50.871778148523155
82.15129340753877
81.61168804184761
81.08053845223296
80.55784908396167
80.04362269091166
79.53786031071857
79.04056121254698
78.55172280033426
78.07134045852717
77.59940734530717
77.13591418268257
76.68084919523214
76.2341985974781
75.79594859338232
75.25856886393167
74.72342679170677
74.19052295717208
73.6598589119634
73.13143763409359
72.60526406164736
72.08134570925706
71.55969335387151
53.50712178748645
53.50712178748645
53.50712178748645
53.50712178748645
53.50712178748645
53.50712178748645
53.50712178748645
53.50712178748645
53.50712178748645
53.50712178748645
51.19925266590168
51.152122681414994
51.10707915905945
51.06411707022261
51.023232238126965
50.984421122784354
50.94768065608963
50.91300812293698
50.8804010811451
82.23145078582391
81.69185944565973
81.16061974680764
80.63773604753246
80.12321102283727
79.61704566289707
79.11923927712928
78.62978951085303
78.14869238313042
77.67594235344761
77.21153241697692
76.75545420146578
76.30769796053204
75.86825215970134
75.32932617308337
74.79262448991365
74.25814465185552
73.72588383113485
73.19583866937931
72.66800507965043
72.1423780048669
71.61895112982742
53.50712178748645
53.50712178748645
53.50712178748645
53.50712178748645
53.50712178748645
53.50712178748645
53.50712178748645
53.50712178748645
53.50712178748645
53.50712178748645
51.2017355349508
51.154691152391536
51.10971315785529
51.066800769334264
51.02595284773468
50.987167980737226
50.95044454550036
50.9157807531385
50.88317467829484
82.25757297957206
81.71798603173193
81.1867164560124
80.66376865541709
80.14914540556333
79.6428478610677
79.14487556284809
78.65522644296034
78.17389682180043
77.70088139118552
77.2361731782235
76.77976349565905
76.33164192379293
75.8917964798406
75.35235176575964
74.81512801230555
74.28012371630689
73.74733750397326
73.21676822343197
72.68841506182085
72.16227769289593
71.63835645969968
53.50712178748645
53.50712178748645
53.50712178748645
53.50712178748645
53.50712178748645
53.50712178748645
53.50712178748645
53.50712178748645
53.50712178748645
53.50712178748645
51.202316726315715
51.15527711676132
51.11030632291069
51.06740190416633
51.02656156554909
50.98778310630462
50.951064382099055
50.91640327852001
50.8837976936429
82.23145078582438
81.69185944566021
81.1606197468081
80.63773604753287
80.12321102283762
79.61704566289738
79.11923927712961
78.62978951085339
78.1486923831308
77.67594235344801
77.2115324169773
76.75545420146618
76.30769796053244
75.86825215970174
75.32932617308377
74.79262448991403
74.2581446518559
73.72588383113518
73.19583866937967
72.66800507965077
72.14237800486721
71.61895112982778
53.50712178748645
53.50712178748645
53.50712178748645
53.50712178748645
53.50712178748645
53.50712178748645
53.50712178748645
53.50712178748645
53.50712178748645
53.50712178748645
51.2017355349513
51.154691152392054
51.10971315785581
51.06680076933478
51.025952847735205
50.98716798073778
50.95044454550091
50.91578075313904
50.883174678295376
82.1512934075395
81.61168804184835
81.08053845223368
80.55784908396238
80.04362269091236
79.53786031071924
79.0405612125476
78.55172280033487
78.07134045852779
77.59940734530778
77.13591418268318
76.68084919523277
76.23419859747875
75.79594859338299
75.25856886393234
74.72342679170742
74.19052295717273
73.65985891196405
73.13143763409425
72.60526406164806
72.08134570925779
71.55969335387219
53.50712178748645
53.50712178748645
53.50712178748645
53.50712178748645
53.50712178748645
53.50712178748645
53.50712178748645
53.50712178748645
53.50712178748645
53.50712178748645
51.19925266590287
51.152122681416195
51.107079159060675
51.064117070223865
51.023232238128216
50.98442112278559
50.94768065609088
50.913008122938244
50.88040108114637
82.01166399369636
81.47203214982558
80.94103322772932
80.4186713895722
79.90494893001421
79.39986643654373
78.90342304474052
78.41561680395189
77.9364451253376
77.46590518895128
77.00399401102666
76.5507075390714
76.10603741161557
75.66996246075638
75.13539785813037
74.60307833943492
74.07298996014579
73.54511551003803
73.0194332326359
72.49591539636025
71.97452675042419
71.455222970578
53.50712178748645
53.50712178748645
53.50712178748645
53.50712178748645
53.50712178748645
53.50712178748645
53.50712178748645
53.50712178748645
53.50712178748645
53.50712178748645
51.19111953328849
51.14392264383954
51.098792457012316
51.05573858799918
51.01476779704317
50.975884537660306
50.93909138827011
50.904389367437425
50.87177814852607
81.80345385874502
81.2637687339386
80.73295477506724
80.21102042046708
79.69797387522809
79.19382173934771
78.69856728302852
78.21220860344359
77.7347371085021
77.26613711209284
76.80638782337249
76.35546983194781
75.91337997843334
75.48016233320845
74.94941145312409
74.42101034143334
73.89500300778741
73.37144262999605
72.8503947655827
72.33194070723333
71.81618073760608
71.30323676628988
53.50712178748645
53.50712178748645
53.50712178748645
53.50712178748645
53.50712178748645
53.50712178748645
53.50712178748645
53.50712178748645
53.50712178748645
53.50712178748645
51.16733772674995
51.11909440679381
51.07315047367149
51.02947274894075
50.98803529235613
50.94881813543763
50.91180624874195
50.87698877932376
50.84435852699127
81.51661718338407
80.97670060597424
80.44567694897589
79.92359043103794
79.41050937990961
78.90652482337124
78.41174742060714
77.92630173207165
77.45031633054421
76.9839076099357
76.52715443018197
76.08005962466136
75.64249099379494
75.21408590119337
74.68911987487928
74.16623459507383
73.64525028160186
73.12596430491622
72.608144919466
72.09152551217609
71.57580053073838
71.06062524229887
53.50712178748645
53.50712178748645
53.50712178748645
53.50712178748645
53.50712178748645
53.50712178748645
53.50712178748645
53.50712178748645
53.50712178748645
53.50712178748645
51.088316045965975
51.04041128486453
50.9944887967378
50.95064595117178
50.90896007337049
50.86949075375981
50.83228185786609
50.79736301832197
50.764750664612485
81.1566000294598
80.6158418310207
80.0828916527776
79.5578108537523
79.04070287967328
78.5317231474742
78.03109512470482
77.53913377193065
77.05627770279739
76.58313147874559
76.12051885141346
75.6695474195103
75.23169146316002
74.80892068883362
74.29658997461325
73.78819768890592
73.28427989460432
72.78540506339716
72.2921793059586
71.80524766381541
71.3252868073362
70.85298102319355
53.50712178748645
53.50712178748645
53.50712178748645
53.50712178748645
53.50712178748645
53.50712178748645
53.50712178748645
53.50712178748645
53.50712178748645
53.50712178748645
50.87463163389447
50.81258658740469
50.75506095857252
50.701874710896234
50.652881027856345
50.607963651831895
50.56703402359399
50.53002918245914
50.49691033113343
80.77159114262247
80.229604958868
79.69354882067424
79.16331616909267
78.63873038398273
78.11954607516829
77.60544619783346
77.09603608581074
76.59083775032083
76.08929078291675
75.5907716842094
75.09464742809652
74.6003582636536
74.10745527516782
73.49724506928398
72.88819711767276
72.28021649877162
71.67319821969858
71.06703591069584
70.46164739694521
69.8570342532752
69.25340439985756
53.50712178748645
53.50712178748645
53.50712178748645
53.50712178748645
53.50712178748645
53.50712178748645
53.50712178748645
53.50712178748645
53.50712178748645
53.50712178748645
50.08105923924074
50.04121732280666
50.002368230975385
49.964631036015696
49.928101008527356
49.892850393926615
49.85893192530543
49.82638128471732
49.79521870821275
80.75238443259529
80.21036229067333
79.67422420647124
79.1438488414852
78.61903952859379
78.0995262931145
77.58496031280454
77.07490294005817
76.56881216509852
76.06603071074505
75.5657861918169
75.06723544106569
74.56960242067979
74.0723335704283
73.45600571561842
72.84069110788523
72.22625049124815
71.61248005510471
70.99908088225348
70.38560808321743
69.77133971464099
69.15515208428758
68.5295936464387
56.18207102526127
52.87081843137598
51.67994818283556
51.32770277514498
51.20272489306415
51.145360101627894
51.060747873815885
50.85348809646531
50.07958647049844
50.03938061710054
50.0003700475764
49.962204791253484
49.92506457014236
49.88903644764427
49.8541876175901
49.82056820869756
49.78821280034483
49.75714127151781
80.73332955533272
80.19127737940309
79.65507410562171
79.12458238984183
78.59958522409633
78.07978884331689
77.56481414196162
77.05418034289845
76.54728315230933
76.0433690518138
75.54151283039225
75.04064288904937
74.53973588325755
74.03814700171914
73.41579398506765
72.79434374989967
72.17363851508152
71.55340204814391
70.9331823504476
70.31225856273647
69.68945226132155
69.06232844193715
68.42728994995264
56.35135079253952
52.837341280102784
51.65051130893433
51.283052406788364
51.157164207201056
51.097623748042516
51.01321519642707
50.7927942064026
50.038537524366106
49.99913620371508
49.96061082714819
49.92301820831206
49.88638757141259
49.850793069738174
49.81629433768294
49.78293770611513
49.7507558134061
49.71976767202389
80.71442960739269
80.17235429463919
79.63610483626314
79.10552579496414
78.5803794665839
78.06034954109013
77.54502879810401
77.03389720502932
76.52629161406972
76.0213658206252
75.51804212701161
75.01499828537439
74.51090205376197
74.00501472490528
73.3767091298227
72.74926493504654
72.12255495997495
71.49628039200027
70.86990914917973
70.24260085878765
69.61305727880496
68.97943602199551
68.33947043983757
56.4871711399546
52.80693802482342
51.61980609082898
51.24046881145134
51.11336781331855
51.052141608506155
50.967643811964855
50.73637715671751
49.99870473561998
49.95995080843144
49.92198350788597
49.88487172981249
49.84867626102626
49.81345340609842
49.77925645616975
49.746128021268575
49.71409867500243
49.68318641281878