# vtk DataFile Version 2.0
Niestacjonarne zagadnienie cieplne - ogrzewanie wody w garnku stalowym
ASCII
DATASET UNSTRUCTURED_GRID
POINTS 1353 float
0.0 0.0 0.0
0.0 0.0015384615384615385 0.0
0.0 0.003076923076923077 0.0
0.0 0.004615384615384615 0.0
0.0 0.006153846153846154 0.0
0.0 0.007692307692307693 0.0
0.0 0.00923076923076923 0.0
0.0 0.010769230769230769 0.0
0.0 0.012307692307692308 0.0
0.0 0.013846153846153847 0.0
0.0 0.015384615384615385 0.0
0.0 0.016923076923076923 0.0
0.0 0.01846153846153846 0.0
0.0 0.02 0.0
0.0 0.020555555555555556 0.0
0.0 0.021111111111111112 0.0
0.0 0.021666666666666667 0.0
0.0 0.022222222222222223 0.0
0.0 0.02277777777777778 0.0
0.0 0.023333333333333334 0.0
0.0 0.02388888888888889 0.0
0.0 0.024444444444444446 0.0
0.0 0.025 0.0
0.0 0.036111111111111115 0.0
0.0 0.04722222222222222 0.0
0.0 0.058333333333333334 0.0
0.0 0.06944444444444445 0.0
0.0 0.08055555555555556 0.0
0.0 0.09166666666666667 0.0
0.0 0.10277777777777777 0.0
0.0 0.1138888888888889 0.0
0.0 0.125 0.0
0.0 0.12555555555555556 0.0
0.0 0.12611111111111112 0.0
0.0 0.12666666666666668 0.0
0.0 0.1272222222222222 0.0
0.0 0.12777777777777777 0.0
0.0 0.12833333333333333 0.0
0.0 0.1288888888888889 0.0
0.0 0.12944444444444445 0.0
0.0 0.13 0.0
5.555555555555556E-4 0.0 0.0
5.555555555555556E-4 0.0015384615384615385 0.0
5.555555555555556E-4 0.003076923076923077 0.0
5.555555555555556E-4 0.004615384615384615 0.0
5.555555555555556E-4 0.006153846153846154 0.0
5.555555555555556E-4 0.007692307692307693 0.0
5.555555555555556E-4 0.00923076923076923 0.0
5.555555555555556E-4 0.010769230769230769 0.0
5.555555555555556E-4 0.012307692307692308 0.0
5.555555555555556E-4 0.013846153846153847 0.0
5.555555555555556E-4 0.015384615384615385 0.0
5.555555555555556E-4 0.016923076923076923 0.0
5.555555555555556E-4 0.01846153846153846 0.0
5.555555555555556E-4 0.02 0.0
5.555555555555556E-4 0.020555555555555556 0.0
5.555555555555556E-4 0.021111111111111112 0.0
5.555555555555556E-4 0.021666666666666667 0.0
5.555555555555556E-4 0.022222222222222223 0.0
5.555555555555556E-4 0.02277777777777778 0.0
5.555555555555556E-4 0.023333333333333334 0.0
5.555555555555556E-4 0.02388888888888889 0.0
5.555555555555556E-4 0.024444444444444446 0.0
5.555555555555556E-4 0.025 0.0
5.555555555555556E-4 0.036111111111111115 0.0
5.555555555555556E-4 0.04722222222222222 0.0
5.555555555555556E-4 0.058333333333333334 0.0
5.555555555555556E-4 0.06944444444444445 0.0
5.555555555555556E-4 0.08055555555555556 0.0
5.555555555555556E-4 0.09166666666666667 0.0
5.555555555555556E-4 0.10277777777777777 0.0
5.555555555555556E-4 0.1138888888888889 0.0
5.555555555555556E-4 0.125 0.0
5.555555555555556E-4 0.12555555555555556 0.0
5.555555555555556E-4 0.12611111111111112 0.0
5.555555555555556E-4 0.12666666666666668 0.0
5.555555555555556E-4 0.1272222222222222 0.0
5.555555555555556E-4 0.12777777777777777 0.0
5.555555555555556E-4 0.12833333333333333 0.0
5.555555555555556E-4 0.1288888888888889 0.0
5.555555555555556E-4 0.12944444444444445 0.0
5.555555555555556E-4 0.13 0.0
0.0011111111111111111 0.0 0.0
0.0011111111111111111 0.0015384615384615385 0.0
0.0011111111111111111 0.003076923076923077 0.0
0.0011111111111111111 0.004615384615384615 0.0
0.0011111111111111111 0.006153846153846154 0.0
0.0011111111111111111 0.007692307692307693 0.0
0.0011111111111111111 0.00923076923076923 0.0
0.0011111111111111111 0.010769230769230769 0.0
0.0011111111111111111 0.012307692307692308 0.0
0.0011111111111111111 0.013846153846153847 0.0
0.0011111111111111111 0.015384615384615385 0.0
0.0011111111111111111 0.016923076923076923 0.0
0.0011111111111111111 0.01846153846153846 0.0
0.0011111111111111111 0.02 0.0
0.0011111111111111111 0.020555555555555556 0.0
0.0011111111111111111 0.021111111111111112 0.0
0.0011111111111111111 0.021666666666666667 0.0
0.0011111111111111111 0.022222222222222223 0.0
0.0011111111111111111 0.02277777777777778 0.0
0.0011111111111111111 0.023333333333333334 0.0
0.0011111111111111111 0.02388888888888889 0.0
0.0011111111111111111 0.024444444444444446 0.0
0.0011111111111111111 0.025 0.0
0.0011111111111111111 0.036111111111111115 0.0
0.0011111111111111111 0.04722222222222222 0.0
0.0011111111111111111 0.058333333333333334 0.0
0.0011111111111111111 0.06944444444444445 0.0
0.0011111111111111111 0.08055555555555556 0.0
0.0011111111111111111 0.09166666666666667 0.0
0.0011111111111111111 0.10277777777777777 0.0
0.0011111111111111111 0.1138888888888889 0.0
0.0011111111111111111 0.125 0.0
0.0011111111111111111 0.12555555555555556 0.0
0.0011111111111111111 0.12611111111111112 0.0
0.0011111111111111111 0.12666666666666668 0.0
0.0011111111111111111 0.1272222222222222 0.0
0.0011111111111111111 0.12777777777777777 0.0
0.0011111111111111111 0.12833333333333333 0.0
0.0011111111111111111 0.1288888888888889 0.0
0.0011111111111111111 0.12944444444444445 0.0
0.0011111111111111111 0.13 0.0
0.0016666666666666666 0.0 0.0
0.0016666666666666666 0.0015384615384615385 0.0
0.0016666666666666666 0.003076923076923077 0.0
0.0016666666666666666 0.004615384615384615 0.0
0.0016666666666666666 0.006153846153846154 0.0
0.0016666666666666666 0.007692307692307693 0.0
0.0016666666666666666 0.00923076923076923 0.0
0.0016666666666666666 0.010769230769230769 0.0
0.0016666666666666666 0.012307692307692308 0.0
0.0016666666666666666 0.013846153846153847 0.0
0.0016666666666666666 0.015384615384615385 0.0
0.0016666666666666666 0.016923076923076923 0.0
0.0016666666666666666 0.01846153846153846 0.0
0.0016666666666666666 0.02 0.0
0.0016666666666666666 0.020555555555555556 0.0
0.0016666666666666666 0.021111111111111112 0.0
0.0016666666666666666 0.021666666666666667 0.0
0.0016666666666666666 0.022222222222222223 0.0
0.0016666666666666666 0.02277777777777778 0.0
0.0016666666666666666 0.023333333333333334 0.0
0.0016666666666666666 0.02388888888888889 0.0
0.0016666666666666666 0.024444444444444446 0.0
0.0016666666666666666 0.025 0.0
0.0016666666666666666 0.036111111111111115 0.0
0.0016666666666666666 0.04722222222222222 0.0
0.0016666666666666666 0.058333333333333334 0.0
0.0016666666666666666 0.06944444444444445 0.0
0.0016666666666666666 0.08055555555555556 0.0
0.0016666666666666666 0.09166666666666667 0.0
0.0016666666666666666 0.10277777777777777 0.0
0.0016666666666666666 0.1138888888888889 0.0
0.0016666666666666666 0.125 0.0
0.0016666666666666666 0.12555555555555556 0.0
0.0016666666666666666 0.12611111111111112 0.0
0.0016666666666666666 0.12666666666666668 0.0
0.0016666666666666666 0.1272222222222222 0.0
0.0016666666666666666 0.12777777777777777 0.0
0.0016666666666666666 0.12833333333333333 0.0
0.0016666666666666666 0.1288888888888889 0.0
0.0016666666666666666 0.12944444444444445 0.0
0.0016666666666666666 0.13 0.0
0.0022222222222222222 0.0 0.0
0.0022222222222222222 0.0015384615384615385 0.0
0.0022222222222222222 0.003076923076923077 0.0
0.0022222222222222222 0.004615384615384615 0.0
0.0022222222222222222 0.006153846153846154 0.0
0.0022222222222222222 0.007692307692307693 0.0
0.0022222222222222222 0.00923076923076923 0.0
0.0022222222222222222 0.010769230769230769 0.0
0.0022222222222222222 0.012307692307692308 0.0
0.0022222222222222222 0.013846153846153847 0.0
0.0022222222222222222 0.015384615384615385 0.0
0.0022222222222222222 0.016923076923076923 0.0
0.0022222222222222222 0.01846153846153846 0.0
0.0022222222222222222 0.02 0.0
0.0022222222222222222 0.020555555555555556 0.0
0.0022222222222222222 0.021111111111111112 0.0
0.0022222222222222222 0.021666666666666667 0.0
0.0022222222222222222 0.022222222222222223 0.0
0.0022222222222222222 0.02277777777777778 0.0
0.0022222222222222222 0.023333333333333334 0.0
0.0022222222222222222 0.02388888888888889 0.0
0.0022222222222222222 0.024444444444444446 0.0
0.0022222222222222222 0.025 0.0
0.0022222222222222222 0.036111111111111115 0.0
0.0022222222222222222 0.04722222222222222 0.0
0.0022222222222222222 0.058333333333333334 0.0
0.0022222222222222222 0.06944444444444445 0.0
0.0022222222222222222 0.08055555555555556 0.0
0.0022222222222222222 0.09166666666666667 0.0
0.0022222222222222222 0.10277777777777777 0.0
0.0022222222222222222 0.1138888888888889 0.0
0.0022222222222222222 0.125 0.0
0.0022222222222222222 0.12555555555555556 0.0
0.0022222222222222222 0.12611111111111112 0.0
0.0022222222222222222 0.12666666666666668 0.0
0.0022222222222222222 0.1272222222222222 0.0
0.0022222222222222222 0.12777777777777777 0.0
0.0022222222222222222 0.12833333333333333 0.0
0.0022222222222222222 0.1288888888888889 0.0
0.0022222222222222222 0.12944444444444445 0.0
0.0022222222222222222 0.13 0.0
0.002777777777777778 0.0 0.0
0.002777777777777778 0.0015384615384615385 0.0
0.002777777777777778 0.003076923076923077 0.0
0.002777777777777778 0.004615384615384615 0.0
0.002777777777777778 0.006153846153846154 0.0
0.002777777777777778 0.007692307692307693 0.0
0.002777777777777778 0.00923076923076923 0.0
0.002777777777777778 0.010769230769230769 0.0
0.002777777777777778 0.012307692307692308 0.0
0.002777777777777778 0.013846153846153847 0.0
0.002777777777777778 0.015384615384615385 0.0
0.002777777777777778 0.016923076923076923 0.0
0.002777777777777778 0.01846153846153846 0.0
0.002777777777777778 0.02 0.0
0.002777777777777778 0.020555555555555556 0.0
0.002777777777777778 0.021111111111111112 0.0
0.002777777777777778 0.021666666666666667 0.0
0.002777777777777778 0.022222222222222223 0.0
0.002777777777777778 0.02277777777777778 0.0
0.002777777777777778 0.023333333333333334 0.0
0.002777777777777778 0.02388888888888889 0.0
0.002777777777777778 0.024444444444444446 0.0
0.002777777777777778 0.025 0.0
0.002777777777777778 0.036111111111111115 0.0
0.002777777777777778 0.04722222222222222 0.0
0.002777777777777778 0.058333333333333334 0.0
0.002777777777777778 0.06944444444444445 0.0
0.002777777777777778 0.08055555555555556 0.0
0.002777777777777778 0.09166666666666667 0.0
0.002777777777777778 0.10277777777777777 0.0
0.002777777777777778 0.1138888888888889 0.0
0.002777777777777778 0.125 0.0
0.002777777777777778 0.12555555555555556 0.0
0.002777777777777778 0.12611111111111112 0.0
[...]
POINT_DATA 1353
SCALARS Temperatura float 1
LOOKUP_TABLE default
83.706938253134
83.16753402619916
82.63393891522456
82.10578578680358
81.58274547868247
81.06441967042241
80.55030321963743
80.03973803410437
79.5318523916256
79.02544902130782
78.51888335160547
78.00944130511131
77.49381932554458
76.95478718615664
76.26037338634666
75.59704226290567
74.94340090922366
74.29561357278145
73.6512493348376
73.00870994280528
72.36683179957757
71.72478203389895
71.0820403904989
59.83600702871967
55.75227305266805
54.551518508745026
54.14609225347922
54.01376119636725
53.94711690811963
53.85612104832699
53.58014435278248
52.838686626742955
52.798941611487564
52.75975173036592
52.721197323892454
52.6833470475076
52.64625834287731
52.60997781546256
52.574541459327676
52.53997474108747
52.50629259653776
83.72593141895804
83.18641374122055
82.65267799285023
82.1243893692848
81.60121909705455
81.0827717637983
80.56854460869648
80.05788389924454
79.54992104339266
79.04348136586127
78.53688260953471
78.02772528851418
77.51153255728258
76.97924743357432
76.31153567678737
75.65039501862718
74.99790337427133
74.35052161433524
73.70625958902392
73.06363205604536
72.42151348885058
71.77907216662939
71.13577318379838
59.864639283786175
55.78794761115961
54.58689570649177
54.18175508987801
54.04947664714731
53.98286625484316
53.89185253956558
53.6163810066404
52.87301097247624
52.83317817855022
52.793907179828786
52.755278149302626
52.71735955172295
52.680208688836785
52.643872104617216
52.60838579842613
52.57377527597268
52.54005551064028
83.74502216208846
83.20544936394647
82.67161381632381
82.14323165075477
81.61998277393121
81.10147893897717
80.58722555858799
80.07658002175958
79.56869290527436
79.06241542228986
78.55614011832152
78.04755174317013
77.53259093925577
77.0070742763376
76.35112721576937
75.69825292061982
75.04953627649476
74.40447468501098
73.7617444069423
73.12013971543534
72.47861647841106
71.83633195192415
71.19269634483271
59.86889447897076
55.82194165040256
54.622347448835306
54.21892430524009
54.08706422598273
54.02069631172238
53.92980730544749
53.65643285704038
52.90882393478724
52.868809192097515
52.829375217538775
52.790601397645965
52.75255540700023
52.715293985706865
52.6788634172076
52.64329968331965
52.60862839450963
52.57486463253276
83.76423990524447
83.22464199139498
82.69074569005681
82.16231093743227
81.63903390441756
81.12053764651843
80.60634090197165
80.09581983793508
79.58815438958031
79.08224432454426
78.57658204166883
78.06900335921328
77.55633744606554
77.03652794998419
76.38892790085818
75.74307483450578
75.09953972236501
74.45814348699213
73.81816365316526
73.17863463344982
72.53856739615505
71.89705440697998
71.25337630957654
59.848260099593965
55.854510206381555
54.6578051676934
54.25762628874233
54.12651884196773
54.060615681439906
53.96997001416405
53.70033508876942
52.94610783113456
52.90581753862141
52.86613964753923
52.8271517455968
52.788919871475954
52.75149972368338
52.714937211977826
52.679268424009116
52.64451927038342
52.610705092075975
83.78359997344093
83.2439953402626
82.71007209277492
82.18162432574405
81.65836814135704
81.13994187816098
80.62588235140082
80.11559127114397
79.60828792327581
79.10293887853443
78.59815403260343
78.09201608906234
77.5821503502474
77.06736907787835
76.42673692729791
75.78728184320146
75.14921674574705
74.51235711728393
73.87613493197672
73.23969964742396
72.6020302033772
71.96205163642922
71.31878471629815
59.80188073617716
55.886089741658125
54.693149729665585
54.29790593152155
54.167829931036096
54.102637807211465
54.012312946146984
53.7481445758007
52.98483126612352
52.944173367269705
52.904172686231654
52.864903199511716
52.82642800913826
52.78880125084909
52.75206862157031
52.71626676986394
52.68142235154697
52.64755124196196
83.80311059587059
83.26351221039084
82.72959096460914
82.20116762037779
81.67797942157894
81.15968331231491
80.64583841935551
80.13587789564014
79.62906935936287
79.12445919930792
78.62079469229232
78.11644460580793
77.60963251006993
77.09951639536258
76.4652710200603
75.8319515829811
75.19956078045071
74.5678490624754
73.93627287061342
73.30398331607468
72.66983467608297
72.03244071903761
71.39034988187255
59.72852944220857
55.91731414466602
54.72820396258921
54.3398296418331
54.21098019767002
54.14678178273936
54.05679499961103
53.799941150483235
53.02494765962774
52.9838335965877
52.94343535481317
52.903820026412305
52.86504556383762
52.82716429060596
52.790222562126594
52.7542587886747
52.7193011285126
52.68536639430619
83.82277570764863
83.28319361370329
82.74929939226449
82.22093536098293
81.69786000699112
81.17975142149479
80.66619464955335
80.1566592901631
79.65046850137942
79.14675816993625
78.64442759954453
78.1421284050261
77.63851687561588
77.13290026713611
76.5048302139308
75.87761026324819
75.25113332376439
74.6251148560997
73.99903061172658
73.37204245098894
72.74285056143808
72.10960879011319
71.47004577564043
59.62656237455733
55.949038946242226
54.76272148876035
54.383489848297906
54.25594373287313
54.19307355169446
54.10336023761248
53.85582948079875
53.06639292678183
53.02474108874827
52.98387880693186
52.94385882117426
52.904730873344455
52.86654545586662
52.82935366955415
52.79319754338813
52.75810771170305
52.724102373197184
83.84259623551897
83.30303867330338
82.76919335043854
82.24092082430732
81.71800054942682
81.20013360949041
80.68693388655731
80.17791141765234
79.67245021403023
79.16978233201776
78.66896582324993
78.16891389782248
77.66860443179587
77.16743546775484
76.54551296901877
75.92447529752285
75.30417891669279
74.68435829317282
74.0645679613181
73.44408962323173
72.82174416049268
72.19509562247553
71.5605445386785
59.49384875505522
55.982376381243675
54.796370924679394
54.4290113459965
54.3026833648264
54.24154757248529
54.15193590413999
53.91594167915683
53.109082003102095
53.06682341484795
53.02544499783448
52.984977623542775
52.94543618343168
52.906892227828514
52.86940576938246
52.83302443672658
52.79778216019254
52.76369884671458
83.86257078510675
83.32304473568051
82.78926757395135
82.2611160229202
81.73839017187754
81.22081537484317
80.70803656079865
80.19960712566379
79.69497540027423
79.19347315211685
78.69431723888913
78.19665852174369
77.69973057845867
77.20301806839575
76.58729864353381
75.97257016316408
75.35870332928793
74.74550205279256
74.13267235602102
73.5197713519846
72.90607631176997
72.2904582565027
71.66547720155272
59.32766262421279
56.0187456532088
54.828713943307406
54.47656002861934
54.351147047496546
54.292248981950955
54.20243008912473
53.98043976878178
53.15290767755483
53.10992142612442
53.06813402815763
53.02713490961778
52.987106959971904
52.94814157523274
52.91031062749392
52.87366814933776
52.838251560512106
52.804082456238056
83.88269606880117
83.34320753364793
82.80951552677134
82.28151172096715
81.75901656280877
81.24178049130467
80.72948099596952
80.22171668886861
79.71800191716655
79.2177686333234
78.72038807590025
78.22522905024377
77.73174750971883
77.23952815913293
76.63009261532333
76.02179407512807
75.41454427054133
74.80824349804098
74.20278884237054
73.59809938357124
72.99417545333881
72.39122103959416
56.75021406619365
56.75021406619365
56.75021406619365
56.75021406619365
56.75021406619365
56.75021406619365
56.75021406619365
56.75021406619365
56.75021406619365
56.75021406619365
53.15447279747318
53.111928895315216
53.07028394495501
53.029676963880114
52.99021700302478
52.951985954697456
52.9150432411483
52.87942895253166
52.845165846193574
84.2848176542284
83.74659249168965
83.21608543676965
82.69335922312086
82.17851979082982
81.67172641227575
81.17320812943719
80.68328768230423
80.20241427742906
79.73120655765672
79.27050642158841
78.82144387886406
78.38551967661083
77.96473455999686
77.45491141104034
76.94902318352915
76.44761373353293
75.95126003810906
75.4605776371308
74.97622212955595
74.4988820839051
74.02925523995205
56.75021406619365
56.75021406619365
56.75021406619365
56.75021406619365
56.75021406619365
56.75021406619365
56.75021406619365
56.75021406619365
56.75021406619365
56.75021406619365
54.002814308591226
53.936880917362316
53.87559124967165
53.81875167625064
53.76620507154884
53.717827404535655
53.67352441302711
53.63322921430664
53.596900690898615
84.6595747505946
84.12221215199224
83.593669958461
83.07399311996011
82.56325119446731
82.06153688588263
81.56896288084334
81.08565596178325
80.61174687388991
80.14735378006921
79.69255643800224
79.247357146252
78.81162103605743
78.38497945438108
77.86213747130127
77.34134052052356
76.82240594469057
76.30512782349895
75.78927057556918
75.27456306637747
74.76069438004441
74.24731340421377
56.75021406619365
56.75021406619365
56.75021406619365
56.75021406619365
56.75021406619365
56.75021406619365
56.75021406619365
56.75021406619365
56.75021406619365
56.75021406619365
54.23186514372977
54.180984117436594
54.13204231570146
54.08514403090818
54.040371921914975
53.99778963370499
53.95744401441146
53.91936674518614
53.883575459141824
84.9578878573967
84.42076277499902
83.89242927831667
83.37289571978448
82.86217018635428
82.36025910178437
81.86716547061344
81.38288700441977
80.90741458545999
80.44073186472899
79.98281729008093
79.53365067935479
79.09322826733796
78.66159409163926
78.13273919836978
77.6062008281539
77.08202350791221
76.56026108751784
76.04098001007395
75.52426273355032
75.01021106256256
74.49894887512288
56.75021406619365
56.75021406619365
56.75021406619365
56.75021406619365
56.75021406619365
56.75021406619365
56.75021406619365
56.75021406619365
56.75021406619365
56.75021406619365
54.3165138050568
54.26529309990282
54.216346869530845
54.16963990312938
54.1251447655134
54.08284040501041
54.04271103349832
54.00474530402254
53.96893574768381
85.17443984853826
84.63736989853551
84.10884321092499
83.58886378120977
83.0774336773008
82.57455320284812
82.08022115696376
81.59443520552742
81.11719233492512
80.64848926264341
80.18832250259004
79.73668744780672
79.29357509267018
78.8589634241535
78.32613739600818
77.7955207944682
77.26709936029906
76.74085551579343
76.21676706223083
75.69480572518299
75.17493557921073
74.6571114557722
56.75021406619365
56.75021406619365
56.75021406619365
56.75021406619365
56.75021406619365
56.75021406619365
56.75021406619365
56.75021406619365
56.75021406619365
56.75021406619365
54.34203316853822
54.29192916056331
54.24385155402712
54.19781076461079
54.15381415271462
54.11186661877417
54.071971067996216
54.03412874849337
53.99833948102905
85.31969423671467
84.78265179962972
84.25396827721076
83.73364795470984
83.22169337221669
82.71810529930518
82.22288268186381
81.73602254380636
81.25751983065827
80.78736720023875
80.32555481035307
79.87207025644089
79.42689906349217
78.99002671083538
78.45427455069658
77.92072364294803
77.38937447116018
76.86022850577656
76.3332886668505
75.80855986693462
75.28604963905407
74.7657688369094
56.75021406619365
56.75021406619365
56.75021406619365
56.75021406619365
56.75021406619365
56.75021406619365
56.75021406619365
56.75021406619365
56.75021406619365
56.75021406619365
54.35076159975776
54.300730904382156
54.25274734439433
54.20680573103435
54.16290178823268
54.12103192057799
54.0811930364452
54.04338242084469
54.007597649919404
85.40309475798415
84.86606691387557
84.33728963775326
83.81676712847546
83.30450185084236
82.80049453411166
82.30474417629453
81.81724806127058
81.33800179740633
80.86699938540531
80.40423331516632
79.9496946645901
79.50337309406089
79.06525642840612
78.52789522838697
77.99272139420401
77.45973233798662
76.92892509722766
76.40029617105291
75.87384131898146
75.34955531509827
74.8274316545455
56.75021406619365
56.75021406619365
56.75021406619365
56.75021406619365
56.75021406619365
56.75021406619365
56.75021406619365
56.75021406619365
56.75021406619365
56.75021406619365
54.35342941191157
54.30349030447381
54.25557691177438
54.20968856471891
54.165824215101175
54.12398252572535
54.084161937487536
54.04636071685227
54.010576987375686
85.43027629422643
84.8932530240767
84.36444466997501
83.8438554771548
83.33148801462892
82.82734318175791
82.33142021578664
81.843716696922
81.36422854572366
80.89295000624686
80.42987360976039
79.97499012467249
79.52828853815868
79.08975622760238
78.55185555011951
78.01613872940224
77.48260414731003
76.95125031748873
76.42207597936977
75.89508021717164
75.3702626100436
74.84762341810323
56.75021406619365
56.75021406619365
56.75021406619365
56.75021406619365
56.75021406619365
56.75021406619365
56.75021406619365
56.75021406619365
56.75021406619365
56.75021406619365
54.35405395854432
54.30412009939627
54.256214512043755
54.21033476202896
54.166478572420566
54.1246437686873
54.08482823829973
54.04702990246721
54.01124669756492
85.40309475798466
84.8660669138761
84.33728963775376
83.81676712847592
83.30450185084274
82.800494534112
82.30474417629485
81.81724806127092
81.3380017974067
80.86699938540569
80.40423331516672
79.94969466459052
79.50337309406132
79.06525642840653
78.52789522838741
77.99272139420445
77.45973233798706
76.92892509722805
76.4002961710533
75.87384131898185
75.34955531509867
74.82743165454596
56.75021406619365
56.75021406619365
56.75021406619365
56.75021406619365
56.75021406619365
56.75021406619365
56.75021406619365
56.75021406619365
56.75021406619365
56.75021406619365
54.35342941191213
54.3034903044744
54.255576911774966
54.209688564719514
54.16582421510179
54.12398252572599
54.08416193748818
54.0463607168529
54.01057698737631
85.31969423671542
84.78265179963047
84.2539682772115
83.73364795471056
83.2216933722174
82.71810529930589
82.22288268186449
81.73602254380704
81.25751983065891
80.7873672002394
80.3255548103537
79.87207025644152
79.42689906349281
78.99002671083605
78.45427455069724
77.92072364294866
77.3893744711608
76.86022850577717
76.33328866685112
75.80855986693524
75.28604963905471
74.76576883690998
56.75021406619365
56.75021406619365
56.75021406619365
56.75021406619365
56.75021406619365
56.75021406619365
56.75021406619365
56.75021406619365
56.75021406619365
56.75021406619365
54.35076159975908
54.300730904383485
54.252747344395694
54.20680573103574
54.162901788234066
54.12103192057938
54.0811930364466
54.04338242084611
54.00759764992083
85.17443984853878
84.63736989853602
84.10884321092549
83.58886378121024
83.07743367730126
82.57455320284856
82.08022115696414
81.59443520552777
81.11719233492546
80.64848926264376
80.18832250259047
79.73668744780716
79.29357509267066
78.85896342415397
78.32613739600868
77.79552079446871
77.26709936029954
76.74085551579387
76.21676706223117
75.69480572518324
75.17493557921094
74.65711145577238
56.75021406619365
56.75021406619365
56.75021406619365
56.75021406619365
56.75021406619365
56.75021406619365
56.75021406619365
56.75021406619365
56.75021406619365
56.75021406619365
54.34203316854144
54.291929160566625
54.24385155403049
54.19781076461417
54.153814152717985
54.11186661877749
54.071971067999456
54.03412874849652
53.99833948103218
84.95788785739707
84.4207627749994
83.89242927831708
83.37289571978492
82.86217018635473
82.36025910178483
81.86716547061393
81.38288700442024
80.9074145854605
80.44073186472947
79.98281729008139
79.53365067935523
79.09322826733836
78.66159409163966
78.13273919837019
77.60620082815426
77.08202350791261
76.56026108751828
76.0409800100745
75.52426273355091
75.01021106256317
74.49894887512347
56.75021406619365
56.75021406619365
56.75021406619365
56.75021406619365
56.75021406619365
56.75021406619365
56.75021406619365
56.75021406619365
56.75021406619365
56.75021406619365
54.31651380505944
54.265293099905506
54.21634686953358
54.169639903132165
54.12514476551623
54.08284040501328
54.04271103350123
54.004745304025505
53.96893574768677
84.65957475059439
84.12221215199203
83.59366995846077
83.07399311995981
82.56325119446701
82.06153688588238
81.56896288084309
81.085655961783
80.61174687388964
80.14735378006901
79.69255643800211
79.24735714625191
78.81162103605736
78.38497945438102
77.86213747130121
77.34134052052352
76.82240594469052
76.30512782349892
75.78927057556909
75.27456306637735
74.76069438004427
74.24731340421359
56.75021406619365
56.75021406619365
56.75021406619365
56.75021406619365
56.75021406619365
56.75021406619365
56.75021406619365
56.75021406619365
56.75021406619365
56.75021406619365
54.23186514373175
54.180984117438605
54.13204231570348
54.08514403091019
54.04037192191699
53.99778963370701
53.957444014413454
53.9193667451881
53.88357545914379
84.28481765422781
83.74659249168906
83.21608543676905
82.69335922312028
82.17851979082924
81.6717264122752
81.1732081294367
80.68328768230374
80.2024142774286
79.73120655765631
79.27050642158807
78.82144387886382
78.38551967661058
77.96473455999664
77.45491141104017
76.94902318352898
76.44761373353279
75.9512600381089
75.46057763713064
74.97622212955577
74.49888208390492
74.02925523995185
56.75021406619365
56.75021406619365
56.75021406619365
56.75021406619365
56.75021406619365
56.75021406619365
56.75021406619365
56.75021406619365
56.75021406619365
56.75021406619365
54.00281430859252
53.93688091736364
53.87559124967302
53.81875167625205
53.76620507155026
53.71782740453709
53.67352441302857
53.63322921430812
53.596900690900114
83.88269606880041
83.34320753364717
82.80951552677068
82.28151172096659
81.75901656280834
81.24178049130434
80.72948099596925
80.22171668886834
79.7180019171663
79.21776863332313
78.72038807589993
78.22522905024341
77.73174750971856
77.23952815913273
76.63009261532318
76.02179407512806
75.41454427054138
74.80824349804118
74.20278884237082
73.59809938357161
72.99417545333922
72.39122103959457
56.75021406619365
56.75021406619365
56.75021406619365
56.75021406619365
56.75021406619365
56.75021406619365
56.75021406619365
56.75021406619365
56.75021406619365
56.75021406619365
53.15447279747466
53.11192889531673
53.07028394495654
53.029676963881656
52.990217003026345
52.951985954699026
52.91504324114984
52.879428952533175
52.84516584619509
83.86257078510596
83.32304473567972
82.78926757395072
82.26111602291965
81.73839017187719
81.22081537484289
80.70803656079839
80.19960712566352
79.69497540027396
79.19347315211654
78.6943172388888
78.19665852174326
77.69973057845837
77.20301806839555
76.5872986435337
75.97257016316405
75.35870332928805
74.74550205279274
74.13267235602133
73.51977135198497
72.90607631177036
72.29045825650313
71.66547720155314
59.32766262421419
56.018745653208725
54.828713943307385
54.47656002862032
54.35114704749691
54.29224898195144
54.20243008912526
53.980439768781
53.15290767755622
53.10992142612585
53.06813402815911
53.027134909619235
52.98710695997343
52.948141575234224
52.91031062749542
52.87366814933926
52.838251560513605
52.80408245623955
83.84259623551814
83.30303867330258
82.7691933504379
82.24092082430683
81.71800054942643
81.20013360949011
80.68693388655707
80.17791141765206
79.67245021403002
79.16978233201746
78.66896582324956
78.16891389782205
77.6686044317956
77.16743546775466
76.54551296901873
75.92447529752285
75.30417891669288
74.68435829317302
74.06456796131842
73.4440896232321
72.82174416049313
72.19509562247602
71.5605445386791
59.49384875505662
55.98237638124366
54.7963709246794
54.42901134599751
54.30268336482684
54.24154757248577
54.151935904140565
53.91594167915602
53.10908200310351
53.0668234148494
53.02544499783595
52.984977623544204
52.945436183433145
52.90689222783001
52.86940576938396
52.83302443672805
52.797782160194
52.76369884671603
83.82277570764779
83.28319361370251
82.74929939226378
82.22093536098244
81.69786000699074
81.17975142149453
80.66619464955308
80.15665929016279
79.65046850137917
79.14675816993585
78.64442759954413
78.14212840502569
77.63851687561551
77.13290026713592
76.50483021393073
75.87761026324819
75.25113332376449
74.62511485609994
73.99903061172691
73.37204245098933
72.74285056143853
72.10960879011373
71.47004577564105
59.62656237455878
55.94903894624234
54.76272148876041
54.38348984829896
54.25594373287355
54.193073551694944
54.10336023761311
53.85582948079793
53.06639292678329
53.0247410887497
52.9838788069333
52.9438588211757
52.90473087334588
52.86654545586806
52.82935366955557
52.79319754338956
52.75810771170447
52.72410237319861
83.80311059586975