# vtk DataFile Version 2.0
Niestacjonarne zagadnienie cieplne - ogrzewanie wody w garnku stalowym
ASCII
DATASET UNSTRUCTURED_GRID
POINTS 1353 float
0.0 0.0 0.0
0.0 0.0015384615384615385 0.0
0.0 0.003076923076923077 0.0
0.0 0.004615384615384615 0.0
0.0 0.006153846153846154 0.0
0.0 0.007692307692307693 0.0
0.0 0.00923076923076923 0.0
0.0 0.010769230769230769 0.0
0.0 0.012307692307692308 0.0
0.0 0.013846153846153847 0.0
0.0 0.015384615384615385 0.0
0.0 0.016923076923076923 0.0
0.0 0.01846153846153846 0.0
0.0 0.02 0.0
0.0 0.020555555555555556 0.0
0.0 0.021111111111111112 0.0
0.0 0.021666666666666667 0.0
0.0 0.022222222222222223 0.0
0.0 0.02277777777777778 0.0
0.0 0.023333333333333334 0.0
0.0 0.02388888888888889 0.0
0.0 0.024444444444444446 0.0
0.0 0.025 0.0
0.0 0.036111111111111115 0.0
0.0 0.04722222222222222 0.0
0.0 0.058333333333333334 0.0
0.0 0.06944444444444445 0.0
0.0 0.08055555555555556 0.0
0.0 0.09166666666666667 0.0
0.0 0.10277777777777777 0.0
0.0 0.1138888888888889 0.0
0.0 0.125 0.0
0.0 0.12555555555555556 0.0
0.0 0.12611111111111112 0.0
0.0 0.12666666666666668 0.0
0.0 0.1272222222222222 0.0
0.0 0.12777777777777777 0.0
0.0 0.12833333333333333 0.0
0.0 0.1288888888888889 0.0
0.0 0.12944444444444445 0.0
0.0 0.13 0.0
5.555555555555556E-4 0.0 0.0
5.555555555555556E-4 0.0015384615384615385 0.0
5.555555555555556E-4 0.003076923076923077 0.0
5.555555555555556E-4 0.004615384615384615 0.0
5.555555555555556E-4 0.006153846153846154 0.0
5.555555555555556E-4 0.007692307692307693 0.0
5.555555555555556E-4 0.00923076923076923 0.0
5.555555555555556E-4 0.010769230769230769 0.0
5.555555555555556E-4 0.012307692307692308 0.0
5.555555555555556E-4 0.013846153846153847 0.0
5.555555555555556E-4 0.015384615384615385 0.0
5.555555555555556E-4 0.016923076923076923 0.0
5.555555555555556E-4 0.01846153846153846 0.0
5.555555555555556E-4 0.02 0.0
5.555555555555556E-4 0.020555555555555556 0.0
5.555555555555556E-4 0.021111111111111112 0.0
5.555555555555556E-4 0.021666666666666667 0.0
5.555555555555556E-4 0.022222222222222223 0.0
5.555555555555556E-4 0.02277777777777778 0.0
5.555555555555556E-4 0.023333333333333334 0.0
5.555555555555556E-4 0.02388888888888889 0.0
5.555555555555556E-4 0.024444444444444446 0.0
5.555555555555556E-4 0.025 0.0
5.555555555555556E-4 0.036111111111111115 0.0
5.555555555555556E-4 0.04722222222222222 0.0
5.555555555555556E-4 0.058333333333333334 0.0
5.555555555555556E-4 0.06944444444444445 0.0
5.555555555555556E-4 0.08055555555555556 0.0
5.555555555555556E-4 0.09166666666666667 0.0
5.555555555555556E-4 0.10277777777777777 0.0
5.555555555555556E-4 0.1138888888888889 0.0
5.555555555555556E-4 0.125 0.0
5.555555555555556E-4 0.12555555555555556 0.0
5.555555555555556E-4 0.12611111111111112 0.0
5.555555555555556E-4 0.12666666666666668 0.0
5.555555555555556E-4 0.1272222222222222 0.0
5.555555555555556E-4 0.12777777777777777 0.0
5.555555555555556E-4 0.12833333333333333 0.0
5.555555555555556E-4 0.1288888888888889 0.0
5.555555555555556E-4 0.12944444444444445 0.0
5.555555555555556E-4 0.13 0.0
0.0011111111111111111 0.0 0.0
0.0011111111111111111 0.0015384615384615385 0.0
0.0011111111111111111 0.003076923076923077 0.0
0.0011111111111111111 0.004615384615384615 0.0
0.0011111111111111111 0.006153846153846154 0.0
0.0011111111111111111 0.007692307692307693 0.0
0.0011111111111111111 0.00923076923076923 0.0
0.0011111111111111111 0.010769230769230769 0.0
0.0011111111111111111 0.012307692307692308 0.0
0.0011111111111111111 0.013846153846153847 0.0
0.0011111111111111111 0.015384615384615385 0.0
0.0011111111111111111 0.016923076923076923 0.0
0.0011111111111111111 0.01846153846153846 0.0
0.0011111111111111111 0.02 0.0
0.0011111111111111111 0.020555555555555556 0.0
0.0011111111111111111 0.021111111111111112 0.0
0.0011111111111111111 0.021666666666666667 0.0
0.0011111111111111111 0.022222222222222223 0.0
0.0011111111111111111 0.02277777777777778 0.0
0.0011111111111111111 0.023333333333333334 0.0
0.0011111111111111111 0.02388888888888889 0.0
0.0011111111111111111 0.024444444444444446 0.0
0.0011111111111111111 0.025 0.0
0.0011111111111111111 0.036111111111111115 0.0
0.0011111111111111111 0.04722222222222222 0.0
0.0011111111111111111 0.058333333333333334 0.0
0.0011111111111111111 0.06944444444444445 0.0
0.0011111111111111111 0.08055555555555556 0.0
0.0011111111111111111 0.09166666666666667 0.0
0.0011111111111111111 0.10277777777777777 0.0
0.0011111111111111111 0.1138888888888889 0.0
0.0011111111111111111 0.125 0.0
0.0011111111111111111 0.12555555555555556 0.0
0.0011111111111111111 0.12611111111111112 0.0
0.0011111111111111111 0.12666666666666668 0.0
0.0011111111111111111 0.1272222222222222 0.0
0.0011111111111111111 0.12777777777777777 0.0
0.0011111111111111111 0.12833333333333333 0.0
0.0011111111111111111 0.1288888888888889 0.0
0.0011111111111111111 0.12944444444444445 0.0
0.0011111111111111111 0.13 0.0
0.0016666666666666666 0.0 0.0
0.0016666666666666666 0.0015384615384615385 0.0
0.0016666666666666666 0.003076923076923077 0.0
0.0016666666666666666 0.004615384615384615 0.0
0.0016666666666666666 0.006153846153846154 0.0
0.0016666666666666666 0.007692307692307693 0.0
0.0016666666666666666 0.00923076923076923 0.0
0.0016666666666666666 0.010769230769230769 0.0
0.0016666666666666666 0.012307692307692308 0.0
0.0016666666666666666 0.013846153846153847 0.0
0.0016666666666666666 0.015384615384615385 0.0
0.0016666666666666666 0.016923076923076923 0.0
0.0016666666666666666 0.01846153846153846 0.0
0.0016666666666666666 0.02 0.0
0.0016666666666666666 0.020555555555555556 0.0
0.0016666666666666666 0.021111111111111112 0.0
0.0016666666666666666 0.021666666666666667 0.0
0.0016666666666666666 0.022222222222222223 0.0
0.0016666666666666666 0.02277777777777778 0.0
0.0016666666666666666 0.023333333333333334 0.0
0.0016666666666666666 0.02388888888888889 0.0
0.0016666666666666666 0.024444444444444446 0.0
0.0016666666666666666 0.025 0.0
0.0016666666666666666 0.036111111111111115 0.0
0.0016666666666666666 0.04722222222222222 0.0
0.0016666666666666666 0.058333333333333334 0.0
0.0016666666666666666 0.06944444444444445 0.0
0.0016666666666666666 0.08055555555555556 0.0
0.0016666666666666666 0.09166666666666667 0.0
0.0016666666666666666 0.10277777777777777 0.0
0.0016666666666666666 0.1138888888888889 0.0
0.0016666666666666666 0.125 0.0
0.0016666666666666666 0.12555555555555556 0.0
0.0016666666666666666 0.12611111111111112 0.0
0.0016666666666666666 0.12666666666666668 0.0
0.0016666666666666666 0.1272222222222222 0.0
0.0016666666666666666 0.12777777777777777 0.0
0.0016666666666666666 0.12833333333333333 0.0
0.0016666666666666666 0.1288888888888889 0.0
0.0016666666666666666 0.12944444444444445 0.0
0.0016666666666666666 0.13 0.0
0.0022222222222222222 0.0 0.0
0.0022222222222222222 0.0015384615384615385 0.0
0.0022222222222222222 0.003076923076923077 0.0
0.0022222222222222222 0.004615384615384615 0.0
0.0022222222222222222 0.006153846153846154 0.0
0.0022222222222222222 0.007692307692307693 0.0
0.0022222222222222222 0.00923076923076923 0.0
0.0022222222222222222 0.010769230769230769 0.0
0.0022222222222222222 0.012307692307692308 0.0
0.0022222222222222222 0.013846153846153847 0.0
0.0022222222222222222 0.015384615384615385 0.0
0.0022222222222222222 0.016923076923076923 0.0
0.0022222222222222222 0.01846153846153846 0.0
0.0022222222222222222 0.02 0.0
0.0022222222222222222 0.020555555555555556 0.0
0.0022222222222222222 0.021111111111111112 0.0
0.0022222222222222222 0.021666666666666667 0.0
0.0022222222222222222 0.022222222222222223 0.0
0.0022222222222222222 0.02277777777777778 0.0
0.0022222222222222222 0.023333333333333334 0.0
0.0022222222222222222 0.02388888888888889 0.0
0.0022222222222222222 0.024444444444444446 0.0
0.0022222222222222222 0.025 0.0
0.0022222222222222222 0.036111111111111115 0.0
0.0022222222222222222 0.04722222222222222 0.0
0.0022222222222222222 0.058333333333333334 0.0
0.0022222222222222222 0.06944444444444445 0.0
0.0022222222222222222 0.08055555555555556 0.0
0.0022222222222222222 0.09166666666666667 0.0
0.0022222222222222222 0.10277777777777777 0.0
0.0022222222222222222 0.1138888888888889 0.0
0.0022222222222222222 0.125 0.0
0.0022222222222222222 0.12555555555555556 0.0
0.0022222222222222222 0.12611111111111112 0.0
0.0022222222222222222 0.12666666666666668 0.0
0.0022222222222222222 0.1272222222222222 0.0
0.0022222222222222222 0.12777777777777777 0.0
0.0022222222222222222 0.12833333333333333 0.0
0.0022222222222222222 0.1288888888888889 0.0
0.0022222222222222222 0.12944444444444445 0.0
0.0022222222222222222 0.13 0.0
0.002777777777777778 0.0 0.0
0.002777777777777778 0.0015384615384615385 0.0
0.002777777777777778 0.003076923076923077 0.0
0.002777777777777778 0.004615384615384615 0.0
0.002777777777777778 0.006153846153846154 0.0
0.002777777777777778 0.007692307692307693 0.0
0.002777777777777778 0.00923076923076923 0.0
0.002777777777777778 0.010769230769230769 0.0
0.002777777777777778 0.012307692307692308 0.0
0.002777777777777778 0.013846153846153847 0.0
0.002777777777777778 0.015384615384615385 0.0
0.002777777777777778 0.016923076923076923 0.0
0.002777777777777778 0.01846153846153846 0.0
0.002777777777777778 0.02 0.0
0.002777777777777778 0.020555555555555556 0.0
0.002777777777777778 0.021111111111111112 0.0
0.002777777777777778 0.021666666666666667 0.0
0.002777777777777778 0.022222222222222223 0.0
0.002777777777777778 0.02277777777777778 0.0
0.002777777777777778 0.023333333333333334 0.0
0.002777777777777778 0.02388888888888889 0.0
0.002777777777777778 0.024444444444444446 0.0
0.002777777777777778 0.025 0.0
0.002777777777777778 0.036111111111111115 0.0
0.002777777777777778 0.04722222222222222 0.0
0.002777777777777778 0.058333333333333334 0.0
0.002777777777777778 0.06944444444444445 0.0
0.002777777777777778 0.08055555555555556 0.0
0.002777777777777778 0.09166666666666667 0.0
0.002777777777777778 0.10277777777777777 0.0
0.002777777777777778 0.1138888888888889 0.0
0.002777777777777778 0.125 0.0
0.002777777777777778 0.12555555555555556 0.0
0.002777777777777778 0.12611111111111112 0.0
[...]
POINT_DATA 1353
SCALARS Temperatura float 1
LOOKUP_TABLE default
81.12564364653078
80.5841704778771
80.04862418279238
79.51863986709587
78.99389223297338
78.4739887888113
77.95843275807626
77.44657795404136
76.93756968223886
76.43023642704398
75.92297166036995
75.41313740712896
74.8975188686033
74.35959592050982
73.66775421964411
73.00561688061285
72.35274034617612
71.70543916537022
71.06136964281816
70.41898474094387
69.77715587250866
69.13507602401889
68.49224528826737
57.239965638628014
53.15357936661267
51.95216074614038
51.54663261312192
51.41468694956805
51.34950021595094
51.262915885943826
51.00187723811336
50.30161379990053
50.264305039542315
50.22756169478596
50.19146543180831
50.15608664849991
50.12148462838413
50.08770767823521
50.05479319807665
50.02276768211024
49.99164668059109
81.1438686748186
80.60228139474069
80.0665937432729
79.53647314447322
79.0115946696571
78.4915686996616
77.97590078811153
77.46394898004189
76.95486165714051
76.44748898581514
75.94018863734652
75.43062305427546
74.91445805272687
74.38297226546253
73.71659950878397
73.05653559629825
72.4047389913571
71.7578071449506
71.11381653177209
70.47132711954147
69.82924545684158
69.18676415111655
68.54336772615774
57.265948551288396
53.18661308013917
51.98489618257143
51.57965392112878
51.44776068783648
51.38260689801555
51.29600537737069
51.035448038572994
50.333355775518775
50.29596137550761
50.25913867214408
50.22296935609362
50.187523801051746
50.152861273340086
50.119030094454985
50.08606770811495
50.05400066178059
50.02284454598209
81.16219150181821
80.62054835142605
80.08475990647446
79.55454449451825
79.02958580516422
78.50950128065763
77.9938044686977
77.48186424765858
76.97284757208534
76.46562968644372
75.95864015290165
75.4496224529574
74.93464162629562
74.40962543731453
73.75448946042714
73.10232284623999
72.45413658769745
71.80942576662787
71.16690144839662
70.52538788418941
69.88386568975277
69.24151237416595
68.59775505032769
57.267564664271745
53.217998938763806
52.017738313067355
51.614214441435415
51.48273825586107
51.41782100701689
51.33133751592976
51.07277429780588
50.36661052193555
50.329035408750585
50.29204980010097
50.255735208654485
50.22016173239498
50.18538844116034
50.15146360969589
50.11842476084423
50.08629857341004
50.055100744250545
81.18064158487198
80.6389724808745
80.10312201687027
79.57285227111693
79.04786309583463
78.52778306319678
78.0121387591855
77.50031734812607
76.99151426762677
76.48465171991711
75.97825539799096
75.4702140797811
74.95744197403319
74.43789643567422
73.7907586959918
73.145325521094
72.50211734154378
71.86093716368228
71.22106774590088
70.58155854573091
69.94143661398665
69.29980942607051
68.65597107220898
57.24430163608062
53.247992106653406
52.05061857152208
51.650340594721264
51.51961467153772
51.45515095284507
51.368897843993466
51.11388955578707
50.40136220076208
50.363511224640646
50.32627943443546
50.28974768492828
50.253985356175434
50.21905107831237
50.18499306012323
50.151849031748455
50.11964596715291
50.088399788746415
81.19923430629476
80.65755755925184
80.12167861943665
79.5913936497389
79.06642229483043
78.54640817560566
78.03089556639344
77.5192965128434
77.01084465081641
76.50452679475441
75.99898193548086
75.4923360384815
74.9822649562748
74.46755656930995
73.82712384628358
73.18785368922313
72.54992492817959
71.91313466587249
71.27691073228573
70.64040738591015
70.00261242235544
69.36246084731297
68.71898324861439
57.19530428583894
53.27702925248989
52.083417801755246
51.68807730161464
51.55837953655294
51.49460982223403
51.408660124683514
51.158847907699574
50.43758264538403
50.39936094489279
50.3618005447967
50.324980597298456
50.28896895513293
50.25382348053604
50.21959246131403
50.1863141845899
50.15401625355355
50.12271501605513
81.21797797472671
80.67630646882078
80.1404277460454
79.61016454423154
79.08525747737127
78.56536848285815
78.0500636699296
77.53878572662083
77.03081522813616
76.52521624928376
76.02076036897104
75.51584857065116
75.00873029825888
74.49852686707631
73.86426701137022
73.23093362305546
72.59850573191663
71.96671853265602
71.33502181011755
70.70256665060786
70.06821134714575
69.43057561658166
68.78821447123623
57.11934588437329
53.305744567644744
52.11595877860919
51.72749099651771
51.599015787606994
51.536216161982566
51.45058540909406
51.2077251453018
50.47523018321195
50.43654416268077
50.398574773883134
50.36139739463736
50.32507671997923
50.289669608334734
50.255225035853634
50.22178274590489
50.18937150821758
50.15800837149451
81.23687662614097
80.69522032608221
80.15936659960607
79.62915963210425
79.10436107936003
78.58465369047056
78.06962894524696
77.55876506861156
77.05139661129348
76.54667435880133
76.04351674794825
75.54059713763885
75.03658135778969
74.53073842537908
73.90247097991045
73.27506301250502
72.64839071894274
72.02215768534379
71.39583314591114
70.7685771024207
70.1390910473696
69.50553195820223
68.8656323912902
57.014782722079495
53.334994004177005
52.14799503478425
51.7686741283235
51.641497828953185
51.57999513765438
51.49462067924501
51.260620425834574
50.51424782362405
50.475006845404806
50.4365529891619
50.39895243643769
50.36226411849398
50.32654336355262
50.291843094935146
50.258205825203355
50.22566213828429
50.19423006384408
81.25593130863032
80.71429837987542
80.17849129422778
79.64837235487504
79.12372395938227
78.6042514770434
78.08957462390569
77.57921107914491
77.07255458352812
76.5688491943061
76.06716688739054
75.56643351045952
75.06562592374296
74.56410651775316
73.94182442532315
73.3204420734989
72.69980407523761
72.07963599615657
71.45948693529364
70.83863646317596
70.2159060379325
69.58886049226514
68.95390227653795
56.8794840035043
53.365890357924876
52.179195053962225
51.81175150213517
51.68578890436747
51.62598013849269
51.540697009733016
51.317658541985615
50.5545606732059
50.514679128129046
50.47567424081058
50.43759846628135
50.40047862065885
50.36438842015924
50.329387562957415
50.29552259814944
50.262826381307114
50.23131807526005
81.27514076857432
80.73353812241014
80.19779672588425
79.66779491472134
79.14333547674556
78.62414765231972
78.10988156916032
77.60009724262916
77.09425103970358
76.59168384210925
76.09162145680496
75.59321971285948
75.09570418834748
74.59852774613069
73.98230072280458
73.36708317504069
72.75273752058705
72.13906124661511
71.5257562660205
70.91237802558605
70.29820444919304
69.68211095521636
69.05664792495938
56.710723572161754
53.399853546339486
52.20912032851888
51.856889003831505
51.73183751659377
51.67421485408791
51.588727453174435
51.37899183692634
50.596076317191894
50.55540315220087
50.51592587543093
50.47728433229105
50.43965877766001
50.40313700323814
50.367786989157956
50.33365952025915
50.300789653293535
50.26919755568645
81.29450187729176
80.7529354508797
80.2172765398021
79.6874182879589
79.16318358232168
78.64432633189692
78.13052857347523
77.62139451141698
77.11644486911246
76.61511795446567
76.11678938390227
75.62082643925493
75.12667200900184
74.63388282776161
74.02380139813185
73.4148779560127
72.80701869830665
72.20011952131459
71.59407463609018
70.98880207898465
70.3843032163014
69.7807853080319
54.05214857891038
54.05214857891038
54.05214857891038
54.05214857891038
54.05214857891038
54.05214857891038
54.05214857891038
54.05214857891038
54.05214857891038
54.05214857891038
50.59756460831025
50.55726855681115
50.51794956113386
50.47973004521538
50.44270759540355
50.406956078270554
50.372529351028895
50.33946383652216
50.30778019450889
81.6823872655329
81.14205477351787
80.60951510264032
80.08482984317111
79.56810286047941
79.05949022010905
78.55921632736013
78.06759745140101
77.5850739876414
77.11225286595396
76.64996089014389
76.19930942828147
75.76177721226637
75.33933916966083
74.82742861425729
74.31945587944298
73.81595833935353
73.31750589667737
72.82470624842317
72.33820621214319
71.85868445962437
71.38682754032621
54.05214857891038
54.05214857891038
54.05214857891038
54.05214857891038
54.05214857891038
54.05214857891038
54.05214857891038
54.05214857891038
54.05214857891038
54.05214857891038
51.400342284915006
51.33764369047271
51.2794854161427
51.22568514093474
51.17609431569239
51.13059537630069
51.08909880501166
51.05154098194254
51.01788271982716
82.04488221978175
81.50539486977921
80.9747881665414
80.45310645182722
79.94041826052774
79.43681490268251
78.94240737895599
78.4573206241412
77.98168357717587
77.51561293045596
77.059187696063
76.61241061878252
76.175149051656
75.74703934808845
75.22242900603071
74.69989338664219
74.17925222654063
73.6603023434379
73.14281134739764
72.62651186568355
72.11109744474092
71.59622227966916
54.05214857891038
54.05214857891038
54.05214857891038
54.05214857891038
54.05214857891038
54.05214857891038
54.05214857891038
54.05214857891038
54.05214857891038
54.05214857891038
51.61660939473104
51.56820438657485
51.521774425466546
51.47741804455114
51.435213465504845
51.395220960241694
51.35748489560431
51.32203524853883
51.28888865083173
82.33364817357248
81.7943932956313
81.26399612254882
80.74246507837458
80.22980834864015
79.72603250416329
79.23114077107797
78.74513118246885
78.26799505875034
77.79971660338126
77.34027489868055
76.88965040579801
76.44783986494197
76.01488734260657
75.48445380943481
74.95636443604823
74.43066331973887
73.90740375199756
73.38665143994294
72.8684878728994
72.3530135901475
71.84035083297816
54.05214857891038
54.05214857891038
54.05214857891038
54.05214857891038
54.05214857891038
54.05214857891038
54.05214857891038
54.05214857891038
54.05214857891038
54.05214857891038
51.696576836306214
51.64783308042811
51.60138453382567
51.55719767648423
51.515246316907216
51.47551030456294
51.437974482494994
51.40262791472579
51.36946335589557
82.54326068528891
82.00405939956613
81.4734758801552
80.95151426135446
80.43817680000242
79.93346403631438
79.43737504989461
78.94990782635827
78.47105970633274
78.0008277931286
77.53920901969407
77.0861992416247
76.64178999059376
76.20595995817791
75.67168623999784
75.13965159148763
74.60984201584562
74.08224024170498
73.55682443888568
73.03356678519586
72.51243191708141
71.99337536900882
54.05214857891038
54.05214857891038
54.05214857891038
54.05214857891038
54.05214857891038
54.05214857891038
54.05214857891038
54.05214857891038
54.05214857891038
54.05214857891038
51.720650686195185
51.67296517116298
51.62733959461701
51.58378370631157
51.542304367377064
51.50290610645704
51.46559155690272
51.430361775862366
51.39721646147133
82.68383575660884
82.14466112303829
81.61392589932332
81.09163450398198
80.5777896552496
80.07239234614092
79.57544179206239
79.08693533379727
78.60686828287938
78.13523371438922
77.67202225664082
77.2172220297393
76.7708191337161
76.33279965227682
75.7956921456774
75.26081615631858
74.72817224902035
74.1977619624246
73.66958826546707
73.14365609261787
72.61997296229039
72.09854966503673
54.05214857891038
54.05214857891038
54.05214857891038
54.05214857891038
54.05214857891038
54.05214857891038
54.05214857891038
54.05214857891038
54.05214857891038
54.05214857891038
51.728883875774336
51.6812663426772
51.63572867135888
51.59226580630829
51.55087355407313
51.51154836535939
51.47428716811394
51.43908724725137
51.405946163666904
82.76453837467622
82.22537786204127
81.69455191640404
81.17206486938264
80.65791936094006
80.15211633783127
79.65465505771061
79.16553310586706
78.6847464331947
78.21228942306922
77.74815498687654
77.29233466122245
76.84481860142509
76.40559516686395
75.86693084825954
75.33048460350301
74.79625395312348
74.26423604734838
73.73442750451017
73.20682421252792
72.68142108661563
72.15821178037443
54.05214857891038
54.05214857891038
54.05214857891038
54.05214857891038
54.05214857891038
54.05214857891038
54.05214857891038
54.05214857891038
54.05214857891038
54.05214857891038
51.731397830047555
51.68386690500858
51.63839554131419
51.59498297595326
51.55362808512231
51.514329469138424
51.477085515878365
51.441894445760774
51.40875434164672
82.7908386676751
82.25168257790388
81.7208265534737
81.19827497101659
80.6840305717148
80.17809446771646
79.68046614947667
79.19114349063338
78.71012274524028
78.23739853085664
77.77296379238976
77.31680975236833
76.86892589281078
76.42930012493161
75.89011359039537
75.35314175892208
74.81838310865591
74.28583624753672
73.75550000608233
73.22737355480196
72.70145655223011
72.17774932816103
54.05214857891038
54.05214857891038
54.05214857891038
54.05214857891038
54.05214857891038
54.05214857891038
54.05214857891038
54.05214857891038
54.05214857891038
54.05214857891038
51.731986308609066
51.6844602364616
51.63899617508475
51.595591684931364
51.55424447406977
51.51495234616282
51.47771316222762
51.44252481384001
51.40938520550939
82.76453837467669
82.22537786204175
81.69455191640449
81.17206486938308
80.65791936094044
80.15211633783157
79.65465505771093
79.16553310586738
78.68474643319506
78.21228942306959
77.74815498687691
77.29233466122285
76.8448186014255
76.40559516686437
75.86693084826
75.33048460350344
74.79625395312392
74.26423604734877
73.73442750451056
73.20682421252832
72.68142108661603
72.15821178037487
54.05214857891038
54.05214857891038
54.05214857891038
54.05214857891038
54.05214857891038
54.05214857891038
54.05214857891038
54.05214857891038
54.05214857891038
54.05214857891038
51.73139783004804
51.68386690500908
51.6383955413147
51.59498297595377
51.55362808512283
51.51432946913897
51.477085515878926
51.44189444576132
51.40875434164726
82.68383575660957
82.14466112303903
81.61392589932406
81.09163450398269
80.57778965525029
80.0723923461416
79.57544179206303
79.0869353337979
78.60686828287999
78.13523371438983
77.67202225664143
77.21722202973992
76.77081913371673
76.33279965227747
75.79569214567803
75.2608161563192
74.72817224902096
74.19776196242522
73.66958826546768
73.14365609261851
72.61997296229103
72.09854966503732
54.05214857891038
54.05214857891038
54.05214857891038
54.05214857891038
54.05214857891038
54.05214857891038
54.05214857891038
54.05214857891038
54.05214857891038
54.05214857891038
51.72888387577553
51.68126634267839
51.635728671360106
51.59226580630955
51.550873554074386
51.51154836536063
51.4742871681152
51.43908724725265
51.40594616366817
82.54326068528944
82.00405939956661
81.47347588015565
80.9515142613549
80.43817680000286
79.93346403631479
79.437375049895
78.94990782635863
78.47105970633308
78.00082779312895
77.53920901969445
77.08619924162511
76.64178999059422
76.20595995817838
75.67168623999835
75.13965159148815
74.6098420158461
74.08224024170542
73.55682443888605
73.03356678519614
72.51243191708166
71.99337536900904
54.05214857891038
54.05214857891038
54.05214857891038
54.05214857891038
54.05214857891038
54.05214857891038
54.05214857891038
54.05214857891038
54.05214857891038
54.05214857891038
51.72065068619822
51.6729651711661
51.62733959462018
51.583783706314755
51.54230436738023
51.50290610646017
51.46559155690578
51.430361775865336
51.39721646147428
82.33364817357284
81.79439329563166
81.26399612254922
80.742465078375
80.22980834864057
79.72603250416374
79.23114077107846
78.74513118246934
78.26799505875084
77.79971660338174
77.34027489868099
76.88965040579842
76.44783986494234
76.01488734260694
75.48445380943518
74.95636443604856
74.43066331973921
73.90740375199795
73.38665143994342
72.86848787289992
72.35301359014802
71.84035083297867
54.05214857891038
54.05214857891038
54.05214857891038
54.05214857891038
54.05214857891038
54.05214857891038
54.05214857891038
54.05214857891038
54.05214857891038
54.05214857891038
51.69657683630864
51.64783308043058
51.601384533828195
51.55719767648681
51.51524631690985
51.4755103045656
51.4379744824977
51.40262791472854
51.369463355898326
82.04488221978153
81.50539486977898
80.97478816654116
80.45310645182695
79.94041826052745
79.43681490268226
78.94240737895574
78.45732062414095
77.98168357717562
77.51561293045573
77.05918769606285
76.61241061878243
76.17514905165594
75.7470393480884
75.22242900603065
74.69989338664216
74.1792522265406
73.6603023434379
73.1428113473976
72.62651186568348
72.11109744474082
71.59622227966902
54.05214857891038
54.05214857891038
54.05214857891038
54.05214857891038
54.05214857891038
54.05214857891038
54.05214857891038
54.05214857891038
54.05214857891038
54.05214857891038
51.61660939473286
51.568204386576696
51.5217744254684
51.477418044552984
51.43521346550669
51.39522096024354
51.35748489560613
51.322035248540615
51.28888865083352
81.68238726553233
81.14205477351732
80.60951510263976
80.08482984317055
79.56810286047886
79.05949022010851
78.55921632735965
78.06759745140053
77.58507398764094
77.11225286595355
76.64996089014353
76.19930942828118
75.7617772122661
75.33933916966059
74.82742861425712
74.31945587944284
73.81595833935339
73.31750589667722
72.82470624842301
72.338206212143
71.85868445962419
71.38682754032604
54.05214857891038
54.05214857891038
54.05214857891038
54.05214857891038
54.05214857891038
54.05214857891038
54.05214857891038
54.05214857891038
54.05214857891038
54.05214857891038
51.40034228491626
51.33764369047399
51.27948541614403
51.22568514093611
51.17609431569377
51.13059537630207
51.08909880501305
51.05154098194396
51.01788271982858
81.29450187729095
80.7529354508789
80.21727653980139
79.6874182879583
79.16318358232117
78.64432633189656
78.1305285734749
77.62139451141667
77.11644486911214
76.61511795446538
76.11678938390192
75.62082643925457
75.12667200900155
74.6338828277614
74.0238013981317
73.41487795601265
72.80701869830669
72.20011952131476
71.59407463609043
70.98880207898496
70.38430321630177
69.78078530803226
54.05214857891038
54.05214857891038
54.05214857891038
54.05214857891038
54.05214857891038
54.05214857891038
54.05214857891038
54.05214857891038
54.05214857891038
54.05214857891038
50.59756460831161
50.557268556812545
50.517949561135275
50.479730045216826
50.44270759540503
50.40695607827207
50.37252935103038
50.33946383652359
50.30778019451032
81.27514076857344
80.73353812240924
80.19779672588353
79.66779491472073
79.14333547674511
78.62414765231937
78.10988156915997
77.60009724262889
77.0942510397033
76.59168384210895
76.09162145680456
75.59321971285908
75.09570418834713
74.59852774613049
73.98230072280448
73.36708317504069
72.75273752058713
72.13906124661528
71.52575626602076
70.91237802558638
70.29820444919335
69.68211095521671
69.05664792495973
56.710723572163054
53.39985354633944
52.20912032851878
51.856889003832535
51.731837516594084
51.67421485408832
51.58872745317497
51.37899183692563
50.596076317193194
50.555403152202246
50.51592587543231
50.47728433229249
50.439658777661464
50.403137003239614
50.36778698915941
50.333659520260596
50.30078965329498
50.26919755568788
81.25593130862943
80.71429837987453
80.17849129422711
79.6483723548745
79.12372395938179
78.60425147704305
78.08957462390538
77.57921107914463
77.07255458352786
76.5688491943058
76.06716688739021
75.5664335104591
75.06562592374266
74.56410651775296
73.94182442532302
73.32044207349888
72.6998040752377
72.07963599615672
71.45948693529391
70.83863646317626
70.21590603793284
69.58886049226554
68.95390227653829
56.879484003505674
53.365890357924876
52.179195053962204
51.811751502136225
51.685788904367826
51.625980138493105
51.54069700973357
51.31765854198489
50.55456067320721
50.5146791281304
50.47567424081199
50.43759846628275
50.40047862066025
50.364388420160665
50.32938756295886
50.295522598150846
50.26282638130854
50.23131807526145
81.23687662614002
80.69522032608138
80.15936659960533
79.62915963210371
79.10436107935958
78.58465369047022
78.06962894524663
77.55876506861124
77.0513966112932
76.54667435880107
76.04351674794786
75.5405971376385
75.03658135778934
74.53073842537891
73.90247097991038
73.27506301250504
72.64839071894279
72.022157685344
71.39583314591142
70.76857710242103
70.13909104737002
69.50553195820265
68.86563239129066
57.014782722080895
53.33499400417708
52.147995034784294
51.768674128324584
51.64149782895357
51.579995137654855
51.49462067924562
51.260620425833835
50.5142478236254
50.47500684540619
50.436552989163296
50.398952436439075
50.36226411849539
50.326543363554016
50.291843094936524
50.25820582520474
50.22566213828567
50.19423006384546