# vtk DataFile Version 2.0
Niestacjonarne zagadnienie cieplne - ogrzewanie wody w garnku stalowym
ASCII
DATASET UNSTRUCTURED_GRID
POINTS 1353 float
0.0 0.0 0.0
0.0 0.0015384615384615385 0.0
0.0 0.003076923076923077 0.0
0.0 0.004615384615384615 0.0
0.0 0.006153846153846154 0.0
0.0 0.007692307692307693 0.0
0.0 0.00923076923076923 0.0
0.0 0.010769230769230769 0.0
0.0 0.012307692307692308 0.0
0.0 0.013846153846153847 0.0
0.0 0.015384615384615385 0.0
0.0 0.016923076923076923 0.0
0.0 0.01846153846153846 0.0
0.0 0.02 0.0
0.0 0.020555555555555556 0.0
0.0 0.021111111111111112 0.0
0.0 0.021666666666666667 0.0
0.0 0.022222222222222223 0.0
0.0 0.02277777777777778 0.0
0.0 0.023333333333333334 0.0
0.0 0.02388888888888889 0.0
0.0 0.024444444444444446 0.0
0.0 0.025 0.0
0.0 0.036111111111111115 0.0
0.0 0.04722222222222222 0.0
0.0 0.058333333333333334 0.0
0.0 0.06944444444444445 0.0
0.0 0.08055555555555556 0.0
0.0 0.09166666666666667 0.0
0.0 0.10277777777777777 0.0
0.0 0.1138888888888889 0.0
0.0 0.125 0.0
0.0 0.12555555555555556 0.0
0.0 0.12611111111111112 0.0
0.0 0.12666666666666668 0.0
0.0 0.1272222222222222 0.0
0.0 0.12777777777777777 0.0
0.0 0.12833333333333333 0.0
0.0 0.1288888888888889 0.0
0.0 0.12944444444444445 0.0
0.0 0.13 0.0
5.555555555555556E-4 0.0 0.0
5.555555555555556E-4 0.0015384615384615385 0.0
5.555555555555556E-4 0.003076923076923077 0.0
5.555555555555556E-4 0.004615384615384615 0.0
5.555555555555556E-4 0.006153846153846154 0.0
5.555555555555556E-4 0.007692307692307693 0.0
5.555555555555556E-4 0.00923076923076923 0.0
5.555555555555556E-4 0.010769230769230769 0.0
5.555555555555556E-4 0.012307692307692308 0.0
5.555555555555556E-4 0.013846153846153847 0.0
5.555555555555556E-4 0.015384615384615385 0.0
5.555555555555556E-4 0.016923076923076923 0.0
5.555555555555556E-4 0.01846153846153846 0.0
5.555555555555556E-4 0.02 0.0
5.555555555555556E-4 0.020555555555555556 0.0
5.555555555555556E-4 0.021111111111111112 0.0
5.555555555555556E-4 0.021666666666666667 0.0
5.555555555555556E-4 0.022222222222222223 0.0
5.555555555555556E-4 0.02277777777777778 0.0
5.555555555555556E-4 0.023333333333333334 0.0
5.555555555555556E-4 0.02388888888888889 0.0
5.555555555555556E-4 0.024444444444444446 0.0
5.555555555555556E-4 0.025 0.0
5.555555555555556E-4 0.036111111111111115 0.0
5.555555555555556E-4 0.04722222222222222 0.0
5.555555555555556E-4 0.058333333333333334 0.0
5.555555555555556E-4 0.06944444444444445 0.0
5.555555555555556E-4 0.08055555555555556 0.0
5.555555555555556E-4 0.09166666666666667 0.0
5.555555555555556E-4 0.10277777777777777 0.0
5.555555555555556E-4 0.1138888888888889 0.0
5.555555555555556E-4 0.125 0.0
5.555555555555556E-4 0.12555555555555556 0.0
5.555555555555556E-4 0.12611111111111112 0.0
5.555555555555556E-4 0.12666666666666668 0.0
5.555555555555556E-4 0.1272222222222222 0.0
5.555555555555556E-4 0.12777777777777777 0.0
5.555555555555556E-4 0.12833333333333333 0.0
5.555555555555556E-4 0.1288888888888889 0.0
5.555555555555556E-4 0.12944444444444445 0.0
5.555555555555556E-4 0.13 0.0
0.0011111111111111111 0.0 0.0
0.0011111111111111111 0.0015384615384615385 0.0
0.0011111111111111111 0.003076923076923077 0.0
0.0011111111111111111 0.004615384615384615 0.0
0.0011111111111111111 0.006153846153846154 0.0
0.0011111111111111111 0.007692307692307693 0.0
0.0011111111111111111 0.00923076923076923 0.0
0.0011111111111111111 0.010769230769230769 0.0
0.0011111111111111111 0.012307692307692308 0.0
0.0011111111111111111 0.013846153846153847 0.0
0.0011111111111111111 0.015384615384615385 0.0
0.0011111111111111111 0.016923076923076923 0.0
0.0011111111111111111 0.01846153846153846 0.0
0.0011111111111111111 0.02 0.0
0.0011111111111111111 0.020555555555555556 0.0
0.0011111111111111111 0.021111111111111112 0.0
0.0011111111111111111 0.021666666666666667 0.0
0.0011111111111111111 0.022222222222222223 0.0
0.0011111111111111111 0.02277777777777778 0.0
0.0011111111111111111 0.023333333333333334 0.0
0.0011111111111111111 0.02388888888888889 0.0
0.0011111111111111111 0.024444444444444446 0.0
0.0011111111111111111 0.025 0.0
0.0011111111111111111 0.036111111111111115 0.0
0.0011111111111111111 0.04722222222222222 0.0
0.0011111111111111111 0.058333333333333334 0.0
0.0011111111111111111 0.06944444444444445 0.0
0.0011111111111111111 0.08055555555555556 0.0
0.0011111111111111111 0.09166666666666667 0.0
0.0011111111111111111 0.10277777777777777 0.0
0.0011111111111111111 0.1138888888888889 0.0
0.0011111111111111111 0.125 0.0
0.0011111111111111111 0.12555555555555556 0.0
0.0011111111111111111 0.12611111111111112 0.0
0.0011111111111111111 0.12666666666666668 0.0
0.0011111111111111111 0.1272222222222222 0.0
0.0011111111111111111 0.12777777777777777 0.0
0.0011111111111111111 0.12833333333333333 0.0
0.0011111111111111111 0.1288888888888889 0.0
0.0011111111111111111 0.12944444444444445 0.0
0.0011111111111111111 0.13 0.0
0.0016666666666666666 0.0 0.0
0.0016666666666666666 0.0015384615384615385 0.0
0.0016666666666666666 0.003076923076923077 0.0
0.0016666666666666666 0.004615384615384615 0.0
0.0016666666666666666 0.006153846153846154 0.0
0.0016666666666666666 0.007692307692307693 0.0
0.0016666666666666666 0.00923076923076923 0.0
0.0016666666666666666 0.010769230769230769 0.0
0.0016666666666666666 0.012307692307692308 0.0
0.0016666666666666666 0.013846153846153847 0.0
0.0016666666666666666 0.015384615384615385 0.0
0.0016666666666666666 0.016923076923076923 0.0
0.0016666666666666666 0.01846153846153846 0.0
0.0016666666666666666 0.02 0.0
0.0016666666666666666 0.020555555555555556 0.0
0.0016666666666666666 0.021111111111111112 0.0
0.0016666666666666666 0.021666666666666667 0.0
0.0016666666666666666 0.022222222222222223 0.0
0.0016666666666666666 0.02277777777777778 0.0
0.0016666666666666666 0.023333333333333334 0.0
0.0016666666666666666 0.02388888888888889 0.0
0.0016666666666666666 0.024444444444444446 0.0
0.0016666666666666666 0.025 0.0
0.0016666666666666666 0.036111111111111115 0.0
0.0016666666666666666 0.04722222222222222 0.0
0.0016666666666666666 0.058333333333333334 0.0
0.0016666666666666666 0.06944444444444445 0.0
0.0016666666666666666 0.08055555555555556 0.0
0.0016666666666666666 0.09166666666666667 0.0
0.0016666666666666666 0.10277777777777777 0.0
0.0016666666666666666 0.1138888888888889 0.0
0.0016666666666666666 0.125 0.0
0.0016666666666666666 0.12555555555555556 0.0
0.0016666666666666666 0.12611111111111112 0.0
0.0016666666666666666 0.12666666666666668 0.0
0.0016666666666666666 0.1272222222222222 0.0
0.0016666666666666666 0.12777777777777777 0.0
0.0016666666666666666 0.12833333333333333 0.0
0.0016666666666666666 0.1288888888888889 0.0
0.0016666666666666666 0.12944444444444445 0.0
0.0016666666666666666 0.13 0.0
0.0022222222222222222 0.0 0.0
0.0022222222222222222 0.0015384615384615385 0.0
0.0022222222222222222 0.003076923076923077 0.0
0.0022222222222222222 0.004615384615384615 0.0
0.0022222222222222222 0.006153846153846154 0.0
0.0022222222222222222 0.007692307692307693 0.0
0.0022222222222222222 0.00923076923076923 0.0
0.0022222222222222222 0.010769230769230769 0.0
0.0022222222222222222 0.012307692307692308 0.0
0.0022222222222222222 0.013846153846153847 0.0
0.0022222222222222222 0.015384615384615385 0.0
0.0022222222222222222 0.016923076923076923 0.0
0.0022222222222222222 0.01846153846153846 0.0
0.0022222222222222222 0.02 0.0
0.0022222222222222222 0.020555555555555556 0.0
0.0022222222222222222 0.021111111111111112 0.0
0.0022222222222222222 0.021666666666666667 0.0
0.0022222222222222222 0.022222222222222223 0.0
0.0022222222222222222 0.02277777777777778 0.0
0.0022222222222222222 0.023333333333333334 0.0
0.0022222222222222222 0.02388888888888889 0.0
0.0022222222222222222 0.024444444444444446 0.0
0.0022222222222222222 0.025 0.0
0.0022222222222222222 0.036111111111111115 0.0
0.0022222222222222222 0.04722222222222222 0.0
0.0022222222222222222 0.058333333333333334 0.0
0.0022222222222222222 0.06944444444444445 0.0
0.0022222222222222222 0.08055555555555556 0.0
0.0022222222222222222 0.09166666666666667 0.0
0.0022222222222222222 0.10277777777777777 0.0
0.0022222222222222222 0.1138888888888889 0.0
0.0022222222222222222 0.125 0.0
0.0022222222222222222 0.12555555555555556 0.0
0.0022222222222222222 0.12611111111111112 0.0
0.0022222222222222222 0.12666666666666668 0.0
0.0022222222222222222 0.1272222222222222 0.0
0.0022222222222222222 0.12777777777777777 0.0
0.0022222222222222222 0.12833333333333333 0.0
0.0022222222222222222 0.1288888888888889 0.0
0.0022222222222222222 0.12944444444444445 0.0
0.0022222222222222222 0.13 0.0
0.002777777777777778 0.0 0.0
0.002777777777777778 0.0015384615384615385 0.0
0.002777777777777778 0.003076923076923077 0.0
0.002777777777777778 0.004615384615384615 0.0
0.002777777777777778 0.006153846153846154 0.0
0.002777777777777778 0.007692307692307693 0.0
0.002777777777777778 0.00923076923076923 0.0
0.002777777777777778 0.010769230769230769 0.0
0.002777777777777778 0.012307692307692308 0.0
0.002777777777777778 0.013846153846153847 0.0
0.002777777777777778 0.015384615384615385 0.0
0.002777777777777778 0.016923076923076923 0.0
0.002777777777777778 0.01846153846153846 0.0
0.002777777777777778 0.02 0.0
0.002777777777777778 0.020555555555555556 0.0
0.002777777777777778 0.021111111111111112 0.0
0.002777777777777778 0.021666666666666667 0.0
0.002777777777777778 0.022222222222222223 0.0
0.002777777777777778 0.02277777777777778 0.0
0.002777777777777778 0.023333333333333334 0.0
0.002777777777777778 0.02388888888888889 0.0
0.002777777777777778 0.024444444444444446 0.0
0.002777777777777778 0.025 0.0
0.002777777777777778 0.036111111111111115 0.0
0.002777777777777778 0.04722222222222222 0.0
0.002777777777777778 0.058333333333333334 0.0
0.002777777777777778 0.06944444444444445 0.0
0.002777777777777778 0.08055555555555556 0.0
0.002777777777777778 0.09166666666666667 0.0
0.002777777777777778 0.10277777777777777 0.0
0.002777777777777778 0.1138888888888889 0.0
0.002777777777777778 0.125 0.0
0.002777777777777778 0.12555555555555556 0.0
0.002777777777777778 0.12611111111111112 0.0
[...]
POINT_DATA 1353
SCALARS Temperatura float 1
LOOKUP_TABLE default
99.24019217042198
98.71324133370966
98.19139755755901
97.6742802321098
97.16153693457251
96.65273425972657
96.14731671147439
95.64455454331615
95.14347355707505
94.64272149149231
94.14042484726696
93.63341160308352
93.11784412258397
92.57221895209085
91.86243327935094
91.19202646427522
90.53389258064705
89.88329138730346
89.23726706352828
88.59391313547127
87.9518552867693
87.31010497668915
86.66801940121313
75.46182439017338
71.39495120842541
70.19848839529791
69.79378375134858
69.65917091781438
69.58376874271168
69.46622931033917
69.10035740080012
68.11098554180198
68.05657748538681
68.00266246974823
67.94931282855136
67.89658670325191
67.84453042588676
67.79318034179313
67.74256396679995
67.69270057118266
67.64360138563794
99.26380767069693
98.73674735929872
98.21476727461645
97.6975191994238
97.18465121793163
96.675733047303
96.1702118822448
95.66736310582687
95.16621597470566
94.66544632073722
94.16313161542746
93.65649972486125
93.14021533673976
92.60320185419091
91.92753888455272
91.26002693552482
90.60346276952292
89.9534853413223
89.30770356180925
88.6643601076236
88.02213639787625
87.3800542515584
86.73746174803249
75.50640586541904
71.44652238018409
70.24976775314009
69.84534727470918
69.7107881476439
69.63542559235334
69.51786430347902
69.15264109073274
68.16085460918201
68.10634591407185
68.05233920793775
67.99890550046266
67.94610173966029
67.89397337855094
67.84255624198215
67.79187761980656
67.74195673606903
67.69280484285557
99.28751936299399
98.76040844414835
98.23833454407682
97.72100057772697
97.20806368161871
96.6991013644509
96.1935700739122
95.69075804816688
95.1897172985078
94.68915442108722
94.18723921138817
93.68130300762733
93.16653789697405
92.63809137201505
91.97737002727331
91.32034543323351
90.668547155467
90.02148656096448
89.37763046405607
88.73559272961944
88.09418027851875
87.45242844624151
86.80964564027103
75.52655371445816
71.49621681131788
70.30092801398851
69.89821904916128
69.76408608112854
69.68900168621018
69.57160529337911
69.20909874718171
68.21206639006502
68.15736835252798
68.1031982889439
68.04962275797284
67.99669481905555
67.94445716435038
67.89294407062751
67.84218222795347
67.7921908049658
67.74298117440668
99.31135646184603
98.78422546927237
98.26209842945472
97.74472238659591
97.23177135248403
96.7228351755547
96.21738535709041
95.71473187461429
95.21396136425292
94.7138385839643
94.21265558219788
93.70792949880428
93.19597779343505
92.67466170890772
92.02438619873978
91.37611466523978
90.73072223510371
90.08813765804281
89.44760697500924
88.80807407023087
88.16845313331204
87.52774629079133
86.88515322243136
75.52175447438239
71.54428871589386
70.35190061086398
69.95242526910856
69.81905897338696
69.7445067864464
69.62743168755627
69.26977545290254
68.26459209949584
68.20962047118687
68.1552201982563
68.10144916907396
68.0483532786209
67.99597055247534
67.94433304039063
67.89346692709861
67.84339171127937
67.79411922760181
99.33533394774003
98.80820179379168
98.28605701111496
97.76868124715233
97.25576928008932
96.74692765089162
96.24164827589003
95.73927065565141
95.23892771077911
94.73946418472022
94.23931488923488
93.7363022062852
93.22774728070438
92.71260918284436
92.0708834501307
91.43042377684546
90.79164824314796
90.15448295293949
89.51838484163771
88.88247450532126
88.24567762507426
87.60685927520232
86.9649811482143
75.4911515162902
71.59117322971453
70.40256657013286
70.00801063956249
69.87569526474435
69.80195648077556
69.6853068443024
69.33474480445473
68.31838090385392
68.2630605467585
68.20837262327801
68.15435991577857
68.10105689488618
68.04849523627689
67.9967050190575
67.94571301237615
67.895540158502
67.84619948239438
99.35945957218242
98.8323397219765
98.31020767756252
97.79287230768861
97.28005056904291
96.77136934686582
96.26634573611646
95.76435549593741
95.26458825988882
94.76598397857525
94.2671436854268
93.76624229525598
93.26134771640389
92.75183872795326
92.11778687314883
91.4846595012521
90.85260174259653
90.22145587094403
89.59071841838502
88.95954069590252
88.32675288768964
87.69093305815981
87.05059016294973
75.4335168093929
71.63750229308306
70.45274907231412
70.06504139876884
69.93397626538746
69.86137315323839
69.74517670697647
69.40411095093914
68.37335667781538
68.31762940052104
68.26261285288278
68.20832420296684
68.15478077601706
68.10200756685317
68.05003513301668
67.99889384472105
67.94860816944285
67.89919349347886
99.38373666387585
98.85663963696771
98.3345468167885
97.81728927888824
97.30460643493635
96.79614833472624
96.29146128625695
95.78996296416662
95.29090795339646
94.79334247256716
94.29605068412697
93.7975533634418
93.29644942205108
92.7922763091388
92.1655002906083
91.53951967647737
90.9143279620199
90.28971208613764
89.66518705454371
89.03992597296117
88.41262128895636
87.78140818758526
87.14399195147669
75.34720600577103
71.68412873380747
70.50220232579765
70.12360983585349
69.99387418597706
69.92278742903984
69.80696777385387
69.47801172566648
68.42941262555713
68.37325120779694
68.31789377820098
68.26331210163035
68.2095005576729
68.1564804982518
68.10429203279752
68.0529742658909
68.00255812689882
67.95306282751825
99.40816541995555
98.88109990587598
98.3590695652466
97.84192444673367
97.32942628631722
96.82125036558742
96.31697544331817
95.81606555028962
95.31784613048214
94.8214770072193
94.32593243198684
93.83004957090151
93.33281244222087
92.83383370429601
92.21418106559506
91.59532521856745
90.97719394691961
90.35957529559363
89.74205653469618
89.12393224696663
88.5040199486815
87.87987926820568
87.24789960056265
75.23008881673577
71.7321611934319
70.55059580932077
70.18384066209437
70.05534936045183
69.98624019944417
69.87058423800744
69.55662329506382
68.48640244557922
68.42983811711785
68.37417486824424
68.319313562571
68.26519726398561
68.21188445758307
68.15943703333987
68.1079091086869
68.05734107780499
68.00775732384578
99.43274359977043
98.90571699904811
98.38376968879324
97.86676868369065
97.35449782513687
96.84665906650326
96.34286603462056
95.84263227130893
95.34535772739494
94.85031930477166
94.35667999434357
93.86356076101686
93.37024334316949
92.8764037991807
92.2638445741279
91.65216647127582
91.04129004388658
90.43105786162843
89.82120068594196
89.21128567986769
88.6005862398898
87.98794698638758
87.36598710014917
75.07944095714777
71.78301430420507
70.59749236544603
70.2458997871731
70.11834644960398
70.05178530913881
69.93590432522583
69.64016594522991
68.54412983815723
68.48722325313621
68.43153304261692
68.37634506363085
68.32185802375855
68.26818500256901
68.21542129361849
68.16364047573437
68.11289419065996
68.0632126272701
99.45746696016427
98.9304856609717
98.40863956156308
97.89181147815468
97.37980716195835
96.87235615549686
96.36910856461807
95.86962932589613
95.37339439208928
94.8797974473736
94.38818336727702
93.89793011716058
93.40857228136349
92.91986292033772
92.3144193922816
91.70998826610848
91.10651457132708
90.50392507167236
89.90213413116514
89.3010670916321
88.7007180279761
88.1012711829015
72.99117995874731
72.99117995874731
72.99117995874731
72.99117995874731
72.99117995874731
72.99117995874731
72.99117995874731
72.99117995874731
72.99117995874731
72.99117995874731
68.54615727707731
68.49008582068195
68.43444263377525
68.37946663915467
68.32533590928396
68.27218065310487
68.22009379480114
68.16913750172672
68.11934715873947
99.9452403674533
99.41969949837087
98.90143353087265
98.39051206408975
97.88705349405583
97.39123634704052
96.90331750726679
96.42365857648353
95.95276168591771
95.49131584118238
95.0402536246271
94.60081703505145
94.17463906035515
93.7638755005755
93.26671016665188
92.77346366971925
92.28471877023993
91.80109491084328
91.32325471717348
90.85190651738658
90.38779831741863
89.9316950776612
72.99117995874731
72.99117995874731
72.99117995874731
72.99117995874731
72.99117995874731
72.99117995874731
72.99117995874731
72.99117995874731
72.99117995874731
72.99117995874731
69.66870269931651
69.58330350553508
69.5031695939464
69.42803927402137
69.3577038039074
69.292000233347
69.23080574797203
69.17403382973873
69.12163174582608
100.39376214006889
99.86918860524334
99.35307925913544
98.84548269744514
98.34647460766557
97.85615604165886
97.37464977937023
96.90209365739119
96.43862921481781
95.98438337837112
95.5394402999989
95.10379949731774
94.67731263916738
94.25958086707307
93.74747772490805
93.23724250136756
92.72867810458062
92.22156211095994
91.71563970945927
91.21061710653149
90.7061565148448
90.20187486812192
72.99117995874731
72.99117995874731
72.99117995874731
72.99117995874731
72.99117995874731
72.99117995874731
72.99117995874731
72.99117995874731
72.99117995874731
72.99117995874731
69.97468645214263
69.9089056892859
69.84484787689586
69.78265196548347
69.72242731532438
69.66425786902553
69.60820540594212
69.55431186241898
69.50260089738224
100.7495017747529
100.22519608809999
99.70929040057118
99.20179262247377
98.70271022556027
98.21204871600932
97.72980972182162
97.25598896663509
96.79057463288252
96.33354697414279
95.88488053762012
95.44455117696116
95.01255198075663
94.58892669310585
94.0696694183105
93.55256389121212
93.0376571725244
92.5250064190436
92.01468244757821
91.50677348759382
91.00138889800316
90.49866234316276
72.99117995874731
72.99117995874731
72.99117995874731
72.99117995874731
72.99117995874731
72.99117995874731
72.99117995874731
72.99117995874731
72.99117995874731
72.99117995874731
70.08750604364192
70.02138004425761
69.95740303715051
69.89552963503871
69.83572491747417
69.77796240932516
69.72222252400431
69.66849144143886
69.61676034784581
101.00779170084012
100.48355040801805
99.96741035619897
99.45937469490124
98.9594443337379
98.46761812078195
97.98389312464876
97.50826503402354
97.04072863994845
96.58127826406778
96.12990781422677
95.6866098054573
95.25137189476983
94.82416771648901
94.30015165367517
93.77816818709924
93.25820143267816
92.74023192322953
92.22423519600807
91.71018020882467
91.19802760874626
90.68772795078583
72.99117995874731
72.99117995874731
72.99117995874731
72.99117995874731
72.99117995874731
72.99117995874731
72.99117995874731
72.99117995874731
72.99117995874731
72.99117995874731
70.1217241888462
70.057066654538
69.99423299758021
69.9332376397142
69.87409094474887
69.81680004969651
69.76136949526871
69.70780167863205
69.6560971587104
101.1811883184033
100.65697971419438
100.1406519685185
99.63220855389663
99.13165091696712
98.63897845066802
98.15418843642138
97.67727593825454
97.20823363573484
96.74705160205768
96.29371707988064
95.84821441364548
95.41052556434154
94.98063226085736
94.4531346710501
93.92765776777759
93.40420149837968
92.88276687476075
92.36335647380193
91.8459750262458
91.33063010218731
90.81733288348359
72.99117995874731
72.99117995874731
72.99117995874731
72.99117995874731
72.99117995874731
72.99117995874731
72.99117995874731
72.99117995874731
72.99117995874731
72.99117995874731
70.13343280398307
70.06888066130391
70.00617800810585
69.9453188524051
69.88629841993423
69.82911283705673
69.77375889398533
69.72023387624169
69.66853545197736
101.28081374880809
100.75662257574746
100.24018284165872
99.73149793572273
99.23056924724425
98.73739616461597
98.2519760807999
97.77430441279954
97.30437464425884
96.84217839927224
96.38770554735598
95.94094431199473
95.50188127123616
95.07050091947548
94.54108017892557
94.01366357650498
93.48824782500219
92.96482923577629
92.4434035422046
91.92396568211171
91.40650953071432
90.89102757947892
72.99117995874731
72.99117995874731
72.99117995874731
72.99117995874731
72.99117995874731
72.99117995874731
72.99117995874731
72.99117995874731
72.99117995874731
72.99117995874731
70.13702645887318
70.07259587046804
70.009986609942
69.94919857200763
69.89023116233889
69.83308341904635
69.77775410167952
69.72424175371444
69.67254474384116
101.31329486139295
100.78910917073303
100.27263234918885
99.7638678405045
99.26281715620087
98.76947988309753
98.2838536920789
97.80593434445626
97.33571569039717
96.87318965249419
96.41834618886024
95.97117324110881
95.53165671469151
95.09978066092576
94.56971663106653
94.04165239963554
93.51558572192104
92.99151449621623
92.46943686515418
91.94935134427638
91.4312569848807
90.91515357693189
72.99117995874731
72.99117995874731
72.99117995874731
72.99117995874731
72.99117995874731
72.99117995874731
72.99117995874731
72.99117995874731
72.99117995874731
72.99117995874731
70.1378680424069
70.07344508154742
70.01084665332125
69.95007035253958
69.8911139915036
69.83397552618888
69.77865300286103
69.72514452098147
69.67344820893076
101.28081374880861
100.756622575748
100.24018284165925
99.73149793572323
99.23056924724469
98.73739616461634
98.25197608080028
97.77430441279994
97.30437464425927
96.84217839927268
96.38770554735643
95.94094431199521
95.50188127123666
95.07050091947595
94.54108017892604
94.01366357650542
93.48824782500263
92.96482923577669
92.44340354220499
91.92396568211208
91.40650953071469
90.89102757947931
72.99117995874731
72.99117995874731
72.99117995874731
72.99117995874731
72.99117995874731
72.99117995874731
72.99117995874731
72.99117995874731
72.99117995874731
72.99117995874731
70.13702645887383
70.07259587046872
70.00998660994269
69.94919857200833
69.8902311623396
69.83308341904709
69.77775410168026
69.72424175371518
69.6725447438419
101.1811883184042
100.6569797141953
100.1406519685194
99.63220855389751
99.13165091696798
98.63897845066886
98.15418843642216
97.6772759382553
97.20823363573557
96.74705160205843
96.29371707988139
95.84821441364626
95.41052556434231
94.98063226085819
94.4531346710509
93.9276577677784
93.40420149838049
92.88276687476159
92.36335647380278
91.84597502624665
91.33063010218815
90.81733288348441
72.99117995874731
72.99117995874731
72.99117995874731
72.99117995874731
72.99117995874731
72.99117995874731
72.99117995874731
72.99117995874731
72.99117995874731
72.99117995874731
70.13343280398468
70.06888066130551
70.0061780081075
69.9453188524068
69.88629841993593
69.8291128370584
69.77375889398702
69.72023387624341
69.66853545197908
101.00779170084073
100.4835504080186
99.9674103561995
99.45937469490173
98.9594443337384
98.4676181207824
97.98389312464919
97.50826503402394
97.04072863994885
96.58127826406819
96.12990781422725
95.68660980545782
95.25137189477043
94.82416771648961
94.3001516536758
93.77816818709987
93.25820143267877
92.7402319232301
92.22423519600851
91.71018020882504
91.19802760874657
90.68772795078611
72.99117995874731
72.99117995874731
72.99117995874731
72.99117995874731
72.99117995874731
72.99117995874731
72.99117995874731
72.99117995874731
72.99117995874731
72.99117995874731
70.12172418885028
70.0570666545422
69.99423299758446
69.93323763971846
69.87409094475312
69.8168000497007
69.7613694952728
69.70780167863603
69.65609715871435
100.74950177475328
100.22519608810042
99.70929040057163
99.20179262247427
98.70271022556076
98.21204871600983
97.72980972182214
97.25598896663561
96.7905746328831
96.33354697414337
95.88488053762067
95.44455117696168
95.01255198075708
94.58892669310629
94.06966941831097
93.5525638912125
93.03765717252483
92.52500641904409
92.01468244757882
91.50677348759447
91.00138889800382
90.49866234316342
72.99117995874731
72.99117995874731
72.99117995874731
72.99117995874731
72.99117995874731
72.99117995874731
72.99117995874731
72.99117995874731
72.99117995874731
72.99117995874731
70.08750604364522
70.02138004426097
69.95740303715394
69.89552963504222
69.83572491747775
69.77796240932878
69.72222252400799
69.6684914414426
69.61676034784956
100.39376214006859
99.86918860524302
99.3530792591351
98.84548269744475
98.34647460766517
97.85615604165852
97.3746497793699
96.90209365739085
96.43862921481747
95.98438337837082
95.5394402999987
95.1037994973176
94.67731263916728
94.25958086707298
93.74747772490798
93.23724250136752
92.72867810458057
92.22156211095991
91.7156397094592
91.2106171065314
90.70615651484468
90.20187486812173
72.99117995874731
72.99117995874731
72.99117995874731
72.99117995874731
72.99117995874731
72.99117995874731
72.99117995874731
72.99117995874731
72.99117995874731
72.99117995874731
69.97468645214506
69.90890568928837
69.84484787689834
69.78265196548594
69.72242731532687
69.66425786902803
69.60820540594459
69.5543118624214
69.50260089738465
99.94524036745257
99.41969949837018
98.90143353087194
98.39051206408905
97.88705349405511
97.39123634703984
96.90331750726617
96.4236585764829
95.95276168591711
95.49131584118184
95.04025362462664
94.6008170350511
94.1746390603548
93.76387550057517
93.2667101666516
92.77346366971898
92.28471877023969
91.801094910843
91.32325471717323
90.8519065173863
90.3877983174183
89.93169507766086
72.99117995874731
72.99117995874731
72.99117995874731
72.99117995874731
72.99117995874731
72.99117995874731
72.99117995874731
72.99117995874731
72.99117995874731
72.99117995874731
69.66870269931815
69.58330350553676
69.50316959394813
69.42803927402313
69.35770380390916
69.29200023334877
69.23080574797382
69.17403382974057
69.12163174582791
99.45746696016326
98.93048566097072
98.40863956156223
97.89181147815397
97.37980716195783
96.87235615549643
96.36910856461769
95.86962932589583
95.37339439208897
94.8797974473732
94.3881833672766
93.89793011716014
93.40857228136313
92.91986292033748
92.31441939228144
91.7099882661085
91.10651457132718
90.50392507167263
89.9021341311655
89.30106709163259
88.70071802797666
88.10127118290211
72.99117995874731
72.99117995874731
72.99117995874731
72.99117995874731
72.99117995874731
72.99117995874731
72.99117995874731
72.99117995874731
72.99117995874731
72.99117995874731
68.54615727707917
68.49008582068386
68.43444263377718
68.37946663915666
68.325335909286
68.27218065310691
68.22009379480316
68.16913750172868
68.11934715874142
99.43274359976932
98.90571699904703
98.38376968879236
97.8667686836899
97.35449782513639
96.84665906650284
96.34286603462013
95.84263227130867
95.3453577273946
94.85031930477128
94.35667999434315
93.86356076101644
93.37024334316907
92.87640379918052
92.26384457412775
91.65216647127583
91.04129004388678
90.4310578616287
89.82120068594234
89.21128567986817
88.60058623989029
87.9879469863882
87.36598710014985
75.07944095714976
71.78301430420498
70.59749236544604
70.24589978717427
70.11834644960447
70.05178530913936
69.93590432522669
69.64016594522886
68.54412983815898
68.48722325313807
68.43153304261882
68.37634506363277
68.3218580237605
68.26818500257097
68.21542129362044
68.16364047573632
68.11289419066186
68.06321262727204
99.40816541995443
98.8810999058749
98.3590695652457
97.84192444673302
97.32942628631673
96.82125036558705
96.31697544331777
95.81606555028928
95.31784613048177
94.82147700721896
94.32593243198647
93.83004957090112
93.33281244222053
92.8338337042958
92.21418106559497
91.59532521856748
90.97719394691978
90.35957529559387
89.74205653469656
89.12393224696709
88.50401994868207
87.87987926820632
87.24789960056339
75.23008881673779
71.73216119343193
70.55059580932091
70.18384066209553
70.0553493604524
69.9862401994448
69.87058423800829
69.55662329506282
68.486402445581
68.42983811711969
68.37417486824613
68.31931356257286
68.2651972639875
68.21188445758496
68.15943703334179
68.10790910868877
68.05734107780688
68.00775732384766
99.38373666387467
98.8566396369666
98.33454681678757
97.81728927888756
97.30460643493585
96.79614833472587
96.29146128625652
95.78996296416622
95.2909079533961
94.79334247256674
94.29605068412657
93.79755336344142
93.29644942205073
92.7922763091386
92.16550029060821
91.53951967647738
90.91432796202007
90.28971208613794
89.66518705454416
89.03992597296164
88.4126212889569
87.7814081875859
87.14399195147737
75.34720600577312
71.68412873380757
70.50220232579778
70.12360983585472
69.99387418597765
69.92278742904045
69.8069677738548
69.47801172566548
68.42941262555898
68.37325120779879
68.31789377820283
68.2633121016322
68.20950055767473
68.15648049825364
68.10429203279936
68.05297426589271
68.00255812690065
67.95306282752006
99.35945957218134
98.83233972197546
98.31020767756155
97.79287230768787
97.28005056904239
96.77136934686541
96.26634573611601
95.76435549593702