# vtk DataFile Version 2.0
Niestacjonarne zagadnienie cieplne - ogrzewanie wody w garnku stalowym
ASCII
DATASET UNSTRUCTURED_GRID
POINTS 1353 float
0.0 0.0 0.0
0.0 0.0015384615384615385 0.0
0.0 0.003076923076923077 0.0
0.0 0.004615384615384615 0.0
0.0 0.006153846153846154 0.0
0.0 0.007692307692307693 0.0
0.0 0.00923076923076923 0.0
0.0 0.010769230769230769 0.0
0.0 0.012307692307692308 0.0
0.0 0.013846153846153847 0.0
0.0 0.015384615384615385 0.0
0.0 0.016923076923076923 0.0
0.0 0.01846153846153846 0.0
0.0 0.02 0.0
0.0 0.020555555555555556 0.0
0.0 0.021111111111111112 0.0
0.0 0.021666666666666667 0.0
0.0 0.022222222222222223 0.0
0.0 0.02277777777777778 0.0
0.0 0.023333333333333334 0.0
0.0 0.02388888888888889 0.0
0.0 0.024444444444444446 0.0
0.0 0.025 0.0
0.0 0.036111111111111115 0.0
0.0 0.04722222222222222 0.0
0.0 0.058333333333333334 0.0
0.0 0.06944444444444445 0.0
0.0 0.08055555555555556 0.0
0.0 0.09166666666666667 0.0
0.0 0.10277777777777777 0.0
0.0 0.1138888888888889 0.0
0.0 0.125 0.0
0.0 0.12555555555555556 0.0
0.0 0.12611111111111112 0.0
0.0 0.12666666666666668 0.0
0.0 0.1272222222222222 0.0
0.0 0.12777777777777777 0.0
0.0 0.12833333333333333 0.0
0.0 0.1288888888888889 0.0
0.0 0.12944444444444445 0.0
0.0 0.13 0.0
5.555555555555556E-4 0.0 0.0
5.555555555555556E-4 0.0015384615384615385 0.0
5.555555555555556E-4 0.003076923076923077 0.0
5.555555555555556E-4 0.004615384615384615 0.0
5.555555555555556E-4 0.006153846153846154 0.0
5.555555555555556E-4 0.007692307692307693 0.0
5.555555555555556E-4 0.00923076923076923 0.0
5.555555555555556E-4 0.010769230769230769 0.0
5.555555555555556E-4 0.012307692307692308 0.0
5.555555555555556E-4 0.013846153846153847 0.0
5.555555555555556E-4 0.015384615384615385 0.0
5.555555555555556E-4 0.016923076923076923 0.0
5.555555555555556E-4 0.01846153846153846 0.0
5.555555555555556E-4 0.02 0.0
5.555555555555556E-4 0.020555555555555556 0.0
5.555555555555556E-4 0.021111111111111112 0.0
5.555555555555556E-4 0.021666666666666667 0.0
5.555555555555556E-4 0.022222222222222223 0.0
5.555555555555556E-4 0.02277777777777778 0.0
5.555555555555556E-4 0.023333333333333334 0.0
5.555555555555556E-4 0.02388888888888889 0.0
5.555555555555556E-4 0.024444444444444446 0.0
5.555555555555556E-4 0.025 0.0
5.555555555555556E-4 0.036111111111111115 0.0
5.555555555555556E-4 0.04722222222222222 0.0
5.555555555555556E-4 0.058333333333333334 0.0
5.555555555555556E-4 0.06944444444444445 0.0
5.555555555555556E-4 0.08055555555555556 0.0
5.555555555555556E-4 0.09166666666666667 0.0
5.555555555555556E-4 0.10277777777777777 0.0
5.555555555555556E-4 0.1138888888888889 0.0
5.555555555555556E-4 0.125 0.0
5.555555555555556E-4 0.12555555555555556 0.0
5.555555555555556E-4 0.12611111111111112 0.0
5.555555555555556E-4 0.12666666666666668 0.0
5.555555555555556E-4 0.1272222222222222 0.0
5.555555555555556E-4 0.12777777777777777 0.0
5.555555555555556E-4 0.12833333333333333 0.0
5.555555555555556E-4 0.1288888888888889 0.0
5.555555555555556E-4 0.12944444444444445 0.0
5.555555555555556E-4 0.13 0.0
0.0011111111111111111 0.0 0.0
0.0011111111111111111 0.0015384615384615385 0.0
0.0011111111111111111 0.003076923076923077 0.0
0.0011111111111111111 0.004615384615384615 0.0
0.0011111111111111111 0.006153846153846154 0.0
0.0011111111111111111 0.007692307692307693 0.0
0.0011111111111111111 0.00923076923076923 0.0
0.0011111111111111111 0.010769230769230769 0.0
0.0011111111111111111 0.012307692307692308 0.0
0.0011111111111111111 0.013846153846153847 0.0
0.0011111111111111111 0.015384615384615385 0.0
0.0011111111111111111 0.016923076923076923 0.0
0.0011111111111111111 0.01846153846153846 0.0
0.0011111111111111111 0.02 0.0
0.0011111111111111111 0.020555555555555556 0.0
0.0011111111111111111 0.021111111111111112 0.0
0.0011111111111111111 0.021666666666666667 0.0
0.0011111111111111111 0.022222222222222223 0.0
0.0011111111111111111 0.02277777777777778 0.0
0.0011111111111111111 0.023333333333333334 0.0
0.0011111111111111111 0.02388888888888889 0.0
0.0011111111111111111 0.024444444444444446 0.0
0.0011111111111111111 0.025 0.0
0.0011111111111111111 0.036111111111111115 0.0
0.0011111111111111111 0.04722222222222222 0.0
0.0011111111111111111 0.058333333333333334 0.0
0.0011111111111111111 0.06944444444444445 0.0
0.0011111111111111111 0.08055555555555556 0.0
0.0011111111111111111 0.09166666666666667 0.0
0.0011111111111111111 0.10277777777777777 0.0
0.0011111111111111111 0.1138888888888889 0.0
0.0011111111111111111 0.125 0.0
0.0011111111111111111 0.12555555555555556 0.0
0.0011111111111111111 0.12611111111111112 0.0
0.0011111111111111111 0.12666666666666668 0.0
0.0011111111111111111 0.1272222222222222 0.0
0.0011111111111111111 0.12777777777777777 0.0
0.0011111111111111111 0.12833333333333333 0.0
0.0011111111111111111 0.1288888888888889 0.0
0.0011111111111111111 0.12944444444444445 0.0
0.0011111111111111111 0.13 0.0
0.0016666666666666666 0.0 0.0
0.0016666666666666666 0.0015384615384615385 0.0
0.0016666666666666666 0.003076923076923077 0.0
0.0016666666666666666 0.004615384615384615 0.0
0.0016666666666666666 0.006153846153846154 0.0
0.0016666666666666666 0.007692307692307693 0.0
0.0016666666666666666 0.00923076923076923 0.0
0.0016666666666666666 0.010769230769230769 0.0
0.0016666666666666666 0.012307692307692308 0.0
0.0016666666666666666 0.013846153846153847 0.0
0.0016666666666666666 0.015384615384615385 0.0
0.0016666666666666666 0.016923076923076923 0.0
0.0016666666666666666 0.01846153846153846 0.0
0.0016666666666666666 0.02 0.0
0.0016666666666666666 0.020555555555555556 0.0
0.0016666666666666666 0.021111111111111112 0.0
0.0016666666666666666 0.021666666666666667 0.0
0.0016666666666666666 0.022222222222222223 0.0
0.0016666666666666666 0.02277777777777778 0.0
0.0016666666666666666 0.023333333333333334 0.0
0.0016666666666666666 0.02388888888888889 0.0
0.0016666666666666666 0.024444444444444446 0.0
0.0016666666666666666 0.025 0.0
0.0016666666666666666 0.036111111111111115 0.0
0.0016666666666666666 0.04722222222222222 0.0
0.0016666666666666666 0.058333333333333334 0.0
0.0016666666666666666 0.06944444444444445 0.0
0.0016666666666666666 0.08055555555555556 0.0
0.0016666666666666666 0.09166666666666667 0.0
0.0016666666666666666 0.10277777777777777 0.0
0.0016666666666666666 0.1138888888888889 0.0
0.0016666666666666666 0.125 0.0
0.0016666666666666666 0.12555555555555556 0.0
0.0016666666666666666 0.12611111111111112 0.0
0.0016666666666666666 0.12666666666666668 0.0
0.0016666666666666666 0.1272222222222222 0.0
0.0016666666666666666 0.12777777777777777 0.0
0.0016666666666666666 0.12833333333333333 0.0
0.0016666666666666666 0.1288888888888889 0.0
0.0016666666666666666 0.12944444444444445 0.0
0.0016666666666666666 0.13 0.0
0.0022222222222222222 0.0 0.0
0.0022222222222222222 0.0015384615384615385 0.0
0.0022222222222222222 0.003076923076923077 0.0
0.0022222222222222222 0.004615384615384615 0.0
0.0022222222222222222 0.006153846153846154 0.0
0.0022222222222222222 0.007692307692307693 0.0
0.0022222222222222222 0.00923076923076923 0.0
0.0022222222222222222 0.010769230769230769 0.0
0.0022222222222222222 0.012307692307692308 0.0
0.0022222222222222222 0.013846153846153847 0.0
0.0022222222222222222 0.015384615384615385 0.0
0.0022222222222222222 0.016923076923076923 0.0
0.0022222222222222222 0.01846153846153846 0.0
0.0022222222222222222 0.02 0.0
0.0022222222222222222 0.020555555555555556 0.0
0.0022222222222222222 0.021111111111111112 0.0
0.0022222222222222222 0.021666666666666667 0.0
0.0022222222222222222 0.022222222222222223 0.0
0.0022222222222222222 0.02277777777777778 0.0
0.0022222222222222222 0.023333333333333334 0.0
0.0022222222222222222 0.02388888888888889 0.0
0.0022222222222222222 0.024444444444444446 0.0
0.0022222222222222222 0.025 0.0
0.0022222222222222222 0.036111111111111115 0.0
0.0022222222222222222 0.04722222222222222 0.0
0.0022222222222222222 0.058333333333333334 0.0
0.0022222222222222222 0.06944444444444445 0.0
0.0022222222222222222 0.08055555555555556 0.0
0.0022222222222222222 0.09166666666666667 0.0
0.0022222222222222222 0.10277777777777777 0.0
0.0022222222222222222 0.1138888888888889 0.0
0.0022222222222222222 0.125 0.0
0.0022222222222222222 0.12555555555555556 0.0
0.0022222222222222222 0.12611111111111112 0.0
0.0022222222222222222 0.12666666666666668 0.0
0.0022222222222222222 0.1272222222222222 0.0
0.0022222222222222222 0.12777777777777777 0.0
0.0022222222222222222 0.12833333333333333 0.0
0.0022222222222222222 0.1288888888888889 0.0
0.0022222222222222222 0.12944444444444445 0.0
0.0022222222222222222 0.13 0.0
0.002777777777777778 0.0 0.0
0.002777777777777778 0.0015384615384615385 0.0
0.002777777777777778 0.003076923076923077 0.0
0.002777777777777778 0.004615384615384615 0.0
0.002777777777777778 0.006153846153846154 0.0
0.002777777777777778 0.007692307692307693 0.0
0.002777777777777778 0.00923076923076923 0.0
0.002777777777777778 0.010769230769230769 0.0
0.002777777777777778 0.012307692307692308 0.0
0.002777777777777778 0.013846153846153847 0.0
0.002777777777777778 0.015384615384615385 0.0
0.002777777777777778 0.016923076923076923 0.0
0.002777777777777778 0.01846153846153846 0.0
0.002777777777777778 0.02 0.0
0.002777777777777778 0.020555555555555556 0.0
0.002777777777777778 0.021111111111111112 0.0
0.002777777777777778 0.021666666666666667 0.0
0.002777777777777778 0.022222222222222223 0.0
0.002777777777777778 0.02277777777777778 0.0
0.002777777777777778 0.023333333333333334 0.0
0.002777777777777778 0.02388888888888889 0.0
0.002777777777777778 0.024444444444444446 0.0
0.002777777777777778 0.025 0.0
0.002777777777777778 0.036111111111111115 0.0
0.002777777777777778 0.04722222222222222 0.0
0.002777777777777778 0.058333333333333334 0.0
0.002777777777777778 0.06944444444444445 0.0
0.002777777777777778 0.08055555555555556 0.0
0.002777777777777778 0.09166666666666667 0.0
0.002777777777777778 0.10277777777777777 0.0
0.002777777777777778 0.1138888888888889 0.0
0.002777777777777778 0.125 0.0
0.002777777777777778 0.12555555555555556 0.0
0.002777777777777778 0.12611111111111112 0.0
[...]
POINT_DATA 1353
SCALARS Temperatura float 1
LOOKUP_TABLE default
113.19713211465067
112.68137163730597
112.17008888730084
111.6628911455424
111.15940508787808
110.65916578265538
110.16157248744253
109.66583107034609
109.17087525431963
108.67521351505124
108.17676665782335
107.67195119202796
107.15644960625798
106.60491884450458
105.88134510288087
105.20460495558532
104.54245917003195
103.88935479695876
103.24186437512833
102.59780448124566
101.9556114537682
101.314156864681
100.67268777454808
89.50279484106703
85.45127404264814
84.25873395798783
83.85470212697255
83.71804748365365
83.6347791257243
83.49339051402723
83.04674512108788
81.83461238104442
81.76702870732358
81.69988223198023
81.63323808772155
81.56714496254563
81.50163920040654
81.43674792270401
81.37249102341748
81.30888220242691
81.2459293596315
113.22490086910103
112.70903448985881
112.19761932140423
111.69029509458733
111.18668909846302
110.68633971630183
110.18864917430682
109.69282916184795
109.19781714839999
108.70215464236055
108.20370322717125
107.69935594033304
107.18300612376161
106.6417625140444
105.95897916339482
105.28576682420051
104.62556816458539
103.97328362542953
103.32616186147274
102.68220107358688
102.03990920906108
101.39817647551469
100.7562457902361
89.56170846878184
85.51712976709678
84.32430285978813
83.92055385456206
83.78395389540178
83.70073029899145
83.55931623574963
83.1134485062056
81.89844981671652
81.83075395196119
81.76350628887678
81.6967695968627
81.63059046928878
81.56500370685663
81.50003549796388
81.43570530276192
81.37202669821379
81.30900759104796
113.25276455895047
112.73685162730715
112.22534802029894
111.71794477710783
111.21427857344283
110.71389614657393
110.21620994553221
109.72044607234997
109.22556797293139
108.73015230087108
108.23216870677226
107.72863098450848
107.21405863394614
106.68299797969513
106.01801081670838
105.35728146086291
104.70273903651979
104.05390746013506
103.40906535295495
102.7666644767615
102.1253779150992
101.48413144513565
100.84214198594036
89.59613880918359
85.58093251867072
84.38957863362464
83.98753568775587
83.8513688646006
83.76845547979076
83.62724241980361
83.18464806021134
81.9634987447929
81.89560690362994
81.8281955498728
81.76131970851385
81.69501929979077
81.62932438708611
81.56425845358751
81.49983983638624
81.43608191308724
81.37299272210801
113.28075221170889
112.76482373661838
112.25327383108942
111.74583795517223
111.24217020883589
110.74183060108051
110.24424818709426
109.74867346879635
109.2541092487203
108.75919897439256
108.26205467569307
107.75990715642969
107.2486141016513
106.72596272960173
106.07330724298808
105.42288703848013
104.77585053673583
104.13222337551127
103.49122330917842
102.85171288191887
102.21251932566841
101.57256359171845
100.93097260146509
89.60557156849829
85.64293576154724
84.45449271643398
84.05567364477912
83.92028605892794
83.83796547195287
83.69714374684295
83.2603977594091
82.02972040345155
81.96155674861114
81.89392751902663
81.82687289396507
81.76042066065743
81.69459295811271
81.62940937688826
81.56488719946245
81.50104016033742
81.43787694201816
113.30887849836158
112.79295385568948
112.28139447627463
111.77397082290854
111.27035851223263
110.77013551210517
110.27275339336288
109.77749575696663
109.28341791975573
108.78925515903714
108.29328497006993
107.79309583336287
107.28573560987027
106.77029530100765
106.12761093166657
105.48627297403173
104.84688385283003
104.20946907212286
103.57350800072206
102.9380953084515
102.30210882973779
101.66435976786606
101.02375673429735
89.5891490573084
85.7035734199625
84.51892628324208
84.12501226145774
83.99069302454625
83.90927778991367
83.7689755584669
83.34078622613487
82.09704649149002
82.02855109547919
81.96066581519179
81.89340539346983
81.8267785652717
81.76079681748904
81.69547619025451
81.63083457154954
81.56688776706662
81.50364623906053
113.33715074129385
112.82124384360175
112.30970684881086
111.802337938934
111.29883584060057
110.79880042805652
110.30171102669443
109.80689182275944
109.31346237584796
108.82026699739026
108.32577531761616
107.82798807324731
107.32483331549854
106.81588822743528
106.18203419774323
105.54910373247044
104.91736994574948
104.2867576220276
103.6567993229573
103.0266465502554
102.39510785636197
101.76072924554677
101.12198421826537
89.54564232090142
85.763475655615
84.58270283906174
84.19561762042899
84.06256981953861
83.98241777398685
83.84267215791733
83.42593945903049
82.16537433359443
82.09651630126294
82.02836437539352
81.9608908519468
81.89407653990082
81.82792186984148
81.76244319847775
81.69766366781369
81.63360442655782
81.57027957803803
113.36557172444981
112.84969351864015
112.33820670900694
111.83093226923057
111.32759246955659
110.8278121613101
110.33110284305296
109.83683553056579
109.34420319080053
108.85217147087151
108.35942107525825
107.86435521929972
107.3655212672939
106.86266352123619
106.23707412131336
105.61223136561674
104.98821913180552
104.36488858840907
103.74179001991531
103.11810665002429
102.49252399713225
101.8631605176529
101.2277005577878
89.47340662502769
85.82349282971425
84.64557712946444
84.26758188154
84.13588696609223
84.05742025564494
83.9181442612606
83.51602509196901
82.23455875267992
82.16535975060236
82.0969776553802
82.02931145444556
81.96230576886451
81.89595575812069
81.83029165021603
81.76534991885924
81.70116175664175
81.63774728452087
113.39414098953704
112.87830056878434
112.36688844029116
111.85974520972869
111.35661669072782
110.85715497825072
110.36090726836947
109.86729625012923
109.37559473941985
108.88489765316697
108.39410394468878
107.90198245401056
107.40752272487387
106.91053026909742
106.29294099330359
105.67606979174326
105.05990853277015
104.44429340594121
103.82884110140961
103.21285778749224
102.59515798011581
101.97329740116909
101.34365553668222
89.37031220755983
85.88473030618046
84.70721942210014
84.34102967548375
84.21060255851599
84.13433190598246
83.99527534991196
83.61125887630341
82.30439841749947
82.23497973599078
82.1664808678701
82.09868583366361
82.03147314310678
81.9648895347795
81.89899858208527
81.83386023109347
81.76952068306186
81.70600834277042
113.42285553567247
112.90706067731746
112.39574493806633
111.88876660868759
111.38589492946188
110.88681082463431
110.39109979134494
109.89823955702465
109.40758659724168
108.9183685116529
108.4296998877255
107.94067482771761
107.45061834808972
106.95937849651463
106.34968255567445
105.74076944001672
105.132604495106
104.525065027041
103.91790402808743
103.31069769668208
102.70271595997977
102.09277973031737
101.47356161790589
89.2336363978298
85.9485985479213
84.76719362910137
84.41612691932941
84.28665830068014
84.21321439360494
84.07391681599876
83.71191345118937
82.37461696902278
82.305202447873
82.23701997160713
82.16908259762415
82.10160323832966
82.03471445509047
81.96853258636654
81.90314877425453
81.83862743978115
81.77500649377842
113.4517102613108
112.93596770088858
112.42476759743447
111.91798480844321
111.41541187880605
110.91675957167965
110.42165338366382
109.929627988013
109.44012483378407
108.95250321501517
108.4660843153118
107.98025432870968
107.4946184936271
107.00908115080706
106.40724823260737
105.80631613531479
105.2062598045426
104.60702978283382
104.00855595694786
103.41076929083204
102.81365823057737
102.21738926500669
87.58514515066953
87.58514515066953
87.58514515066953
87.58514515066953
87.58514515066953
87.58514515066953
87.58514515066953
87.58514515066953
87.58514515066953
87.58514515066953
82.37705980911242
82.30883338512417
82.24061215967535
82.17272483410066
82.10541150529068
82.03884580032963
81.97315074863067
81.9084083563146
81.84466535544261
114.01643989553821
113.50229683455383
112.99503188418406
112.49472080896346
112.00149319033578
111.51554484475712
111.03715765986658
110.56672813810785
110.10480594265715
109.65214327414702
109.2097541621027
108.77898118734699
108.36157610507847
107.95983396643686
107.47406367272248
106.99219807021964
106.51485485293819
106.04269159597506
105.57641320781168
105.11677536919328
104.66457946534642
104.2206508290742
87.58514515066953
87.58514515066953
87.58514515066953
87.58514515066953
87.58514515066953
87.58514515066953
87.58514515066953
87.58514515066953
87.58514515066953
87.58514515066953
83.74598699217219
83.64309738021463
83.54603137940744
83.4544661420419
83.3681465464509
83.28687467182176
83.21050204863458
83.13892451592416
83.07207890423183
114.53123524939512
114.01815364554551
113.51321757974551
113.01647892027508
112.52801885603536
112.04794593075074
111.57639198164895
111.11350476324431
110.65943549620174
110.21431896253992
109.77824324173187
109.35120533110849
108.93304478247069
108.52333557947148
108.02090345075126
107.5201804497032
107.02095650834733
106.5229943685006
106.02602193530119
105.52972505066161
105.03374177846423
104.53766033766846
87.58514515066953
87.58514515066953
87.58514515066953
87.58514515066953
87.58514515066953
87.58514515066953
87.58514515066953
87.58514515066953
87.58514515066953
87.58514515066953
84.12109770559191
84.04192923159627
83.964289222137
83.88834776901876
83.81423822430641
83.74206276837697
83.67189659653245
83.60379085959826
83.53777463086186
114.93856822795715
114.42578172125998
113.921044781708
113.42436491983253
112.93574904966927
112.45520184558912
111.98272368905403
111.51830850551603
111.06194203734778
110.61360146907525
110.17325782448182
109.74088337437884
109.31646835685747
108.90005622535504
108.38944465070705
107.8808371146029
107.37428294281831
106.86984225151056
106.3675897749329
105.86761891542665
105.37004580608566
104.87501289035337
87.58514515066953
87.58514515066953
87.58514515066953
87.58514515066953
87.58514515066953
87.58514515066953
87.58514515066953
87.58514515066953
87.58514515066953
87.58514515066953
84.25922969484346
84.17971100090251
84.10222839085908
84.02672733324209
83.95316618167084
83.88151358776139
83.81174655185063
83.74384903171631
83.67781100523634
115.234355747909
114.72164195510614
114.21663365951473
113.7193332480956
113.22974058489069
112.7478532029019
112.27366660627095
111.80717469517246
111.34837027376201
110.89724549429434
110.45379190401191
110.01799941072038
109.58985264930612
109.16932131780725
108.65324331258871
108.13903936691423
107.62669212647275
107.1161804159899
106.60747772803106
106.10055052308152
105.59535635811969
105.09184193533238
87.58514515066953
87.58514515066953
87.58514515066953
87.58514515066953
87.58514515066953
87.58514515066953
87.58514515066953
87.58514515066953
87.58514515066953
87.58514515066953
84.3012639210834
84.223529762681
84.14743734969393
84.07300470311093
84.00024488513667
83.9291670422288
83.85977718453857
83.79207874165863
83.72607293581684
115.43303509264739
114.92035863800861
114.41513492432468
113.91736669143361
113.42705439866067
112.94419619479511
112.46878785611254
112.00082267369537
111.54029127681987
111.08718139975713
110.6414776469848
110.2031614207558
109.77221145641249
109.34860608744717
108.82854758779366
108.3103478829619
107.79400642783179
107.27952381146495
106.76690229136337
106.25614642367486
105.74726380035577
105.24026588644966
87.58514515066953
87.58514515066953
87.58514515066953
87.58514515066953
87.58514515066953
87.58514515066953
87.58514515066953
87.58514515066953
87.58514515066953
87.58514515066953
84.31565029281037
84.23805034993792
84.16212214774598
84.08785897222674
84.01525560123834
83.94430791099371
83.87501258544788
83.80736691056717
83.7413686372317
115.54723666690279
115.03458019302856
114.52922810879575
114.03118307344795
113.5404455051122
113.05701358017384
112.58088323983523
112.11204821172107
111.6505000560734
111.1962282449384
110.74922027445317
110.30946178217326
109.8769365531957
109.45162606386573
108.92936221833891
108.40893822861028
107.89035016851115
107.37359368621023
106.8586638161496
106.34555474680961
105.83425953459087
105.32476975785478
87.58514515066953
87.58514515066953
87.58514515066953
87.58514515066953
87.58514515066953
87.58514515066953
87.58514515066953
87.58514515066953
87.58514515066953
87.58514515066953
84.32007583240811
84.2426243690069
84.16681042782093
84.09263440985106
84.0200961283586
83.94919495851308
83.87992994609114
83.81229988345223
83.74630335959965
115.58447878712991
115.0718286117315
114.56643404114004
114.06829779651854
113.57742043438435
113.09380035499593
112.61743381223529
112.1483149211399
111.68643565728524
111.23178584076062
110.78435309873342
110.34412281171355
109.91107809276701
109.4851999790907
108.96219958107689
108.44103395316402
107.92170027703821
107.40419588729931
106.88851837939002
106.37466574676324
105.86263655514686
105.35243016061585
87.58514515066953
87.58514515066953
87.58514515066953
87.58514515066953
87.58514515066953
87.58514515066953
87.58514515066953
87.58514515066953
87.58514515066953
87.58514515066953
84.32111242634902
84.24367072827997
84.16787033915215
84.09370887977005
84.02118424237942
83.95029450005845
83.8810378416651
83.81341252680782
83.74741685644388
115.54723666690339
115.03458019302917
114.52922810879635
114.03118307344852
113.54044550511269
113.05701358017427
112.58088323983569
112.11204821172154
111.65050005607388
111.19622824493888
110.74922027445368
110.30946178217378
109.87693655319626
109.4516260638663
108.92936221833948
108.40893822861085
107.89035016851169
107.37359368621071
106.85866381615008
106.34555474681011
105.83425953459137
105.32476975785535
87.58514515066953
87.58514515066953
87.58514515066953
87.58514515066953
87.58514515066953
87.58514515066953
87.58514515066953
87.58514515066953
87.58514515066953
87.58514515066953
84.32007583240888
84.2426243690077
84.16681042782173
84.09263440985185
84.02009612835944
83.94919495851396
83.879929946092
83.81229988345308
83.7463033596005
115.43303509264842
114.92035863800966
114.4151349243257
113.91736669143461
113.42705439866167
112.94419619479606
112.46878785611347
112.00082267369629
111.54029127682075
111.08718139975804
110.64147764698568
110.2031614207567
109.77221145641342
109.34860608744813
108.82854758779465
108.31034788296284
107.79400642783273
107.27952381146589
106.76690229136432
106.25614642367584
105.74726380035676
105.24026588645062
87.58514515066953
87.58514515066953
87.58514515066953
87.58514515066953
87.58514515066953
87.58514515066953
87.58514515066953
87.58514515066953
87.58514515066953
87.58514515066953
84.31565029281232
84.2380503499399
84.16212214774801
84.08785897222884
84.01525560124043
83.9443079109958
83.87501258544998
83.8073669105693
83.74136863723385
115.23435574790972
114.72164195510679
114.21663365951535
113.71933324809618
113.22974058489129
112.74785320290246
112.27366660627149
111.80717469517295
111.34837027376247
110.89724549429481
110.45379190401246
110.01799941072096
109.58985264930679
109.1693213178079
108.65324331258941
108.13903936691493
107.6266921264734
107.11618041599051
106.60747772803153
106.10055052308188
105.59535635811996
105.09184193533262
87.58514515066953
87.58514515066953
87.58514515066953
87.58514515066953
87.58514515066953
87.58514515066953
87.58514515066953
87.58514515066953
87.58514515066953
87.58514515066953
84.30126392108842
84.22352976268617
84.14743734969917
84.07300470311615
84.00024488514185
83.92916704223393
83.85977718454357
83.79207874166349
83.72607293582166
114.93856822795763
114.42578172126049
113.92104478170857
113.42436491983317
112.9357490496699
112.45520184558974
111.98272368905467
111.51830850551669
111.06194203734847
110.61360146907597
110.1732578244825
109.74088337437951
109.31646835685805
108.9000562253556
108.38944465070763
107.88083711460338
107.37428294281882
106.86984225151116
106.3675897749336
105.86761891542744
105.37004580608648
104.87501289035416
87.58514515066953
87.58514515066953
87.58514515066953
87.58514515066953
87.58514515066953
87.58514515066953
87.58514515066953
87.58514515066953
87.58514515066953
87.58514515066953
84.25922969484749
84.17971100090661
84.10222839086329
84.0267273332464
83.9531661816752
83.8815135877658
83.8117465518551
83.74384903172086
83.67781100524091
114.53123524939477
114.01815364554514
113.5132175797451
113.01647892027461
112.5280188560349
112.04794593075033
111.57639198164854
111.11350476324391
110.65943549620135
110.21431896253964
109.7782432417317
109.35120533110836
108.9330447824706
108.52333557947142
108.0209034507512
107.52018044970318
107.0209565083473
106.52299436850059
106.02602193530112
105.5297250506615
105.03374177846409
104.53766033766826
87.58514515066953
87.58514515066953
87.58514515066953
87.58514515066953
87.58514515066953
87.58514515066953
87.58514515066953
87.58514515066953
87.58514515066953
87.58514515066953
84.1210977055949
84.04192923159933
83.96428922214007
83.88834776902183
83.81423822430949
83.74206276838005
83.67189659653549
83.60379085960126
83.53777463086486
114.01643989553736
113.502296834553
112.99503188418323
112.49472080896264
112.00149319033494
111.51554484475632
111.03715765986587
110.56672813810714
110.10480594265648
109.65214327414635
109.20975416210216
108.7789811873466
108.3615761050781
107.95983396643655
107.47406367272222
106.99219807021942
106.51485485293797
106.0426915959748
105.57641320781144
105.11677536919298
104.66457946534611
104.22065082907388
87.58514515066953
87.58514515066953
87.58514515066953
87.58514515066953
87.58514515066953
87.58514515066953
87.58514515066953
87.58514515066953
87.58514515066953
87.58514515066953
83.74598699217418
83.64309738021666
83.54603137940953
83.45446614204403
83.36814654645305
83.28687467182391
83.21050204863674
83.13892451592636
83.07207890423403
113.45171026130966
112.93596770088745
112.42476759743349
111.91798480844244
111.41541187880546
110.91675957167918
110.42165338366334
109.92962798801253
109.44012483378363
108.95250321501481
108.46608431531136
107.98025432870915
107.49461849362675
107.00908115080675
106.4072482326072
105.80631613531479
105.20625980454274
104.60702978283415
104.0085559569483
103.4107692908326
102.81365823057801
102.21738926500733
87.58514515066953
87.58514515066953
87.58514515066953
87.58514515066953
87.58514515066953
87.58514515066953
87.58514515066953
87.58514515066953
87.58514515066953
87.58514515066953
82.37705980911448
82.30883338512632
82.24061215967753
82.1727248341029
82.10541150529295
82.03884580033191
81.97315074863292
81.90840835631678
81.84466535544479
113.42285553567136
112.90706067731621
112.39574493806549
111.88876660868677
111.38589492946136
110.88681082463391
110.39109979134442
109.89823955702417
109.40758659724129
108.91836851165256
108.42969988772509
107.94067482771698
107.45061834808925
106.95937849651438
106.34968255567432
105.74076944001675
105.13260449510618
104.52506502704126
103.91790402808789
103.31069769668264
102.70271595998037
102.09277973031804
101.47356161790658
89.23363639783196
85.94859854792101
84.76719362910124
84.41612691933099
84.28665830068068
84.21321439360574
84.07391681599952
83.71191345118808
82.3746169690248
82.30520244787505
82.23701997160929
82.16908259762631
82.10160323833183
82.03471445509261
81.96853258636868
81.90314877425666
81.83862743978331
81.77500649378052
113.39414098953579
112.8783005687831
112.36688844029034
111.85974520972783
111.35661669072722
110.85715497825022
110.36090726836906
109.86729625012883
109.37559473941951
108.88489765316659
108.39410394468833
107.90198245400991
107.40752272487352
106.91053026909717
106.29294099330349
105.67606979174327
105.0599085327703
104.44429340594154
103.82884110141009
103.21285778749278
102.59515798011644
101.97329740116984
101.34365553668296
89.37031220756205
85.88473030618024
84.70721942210015
84.3410296754853
84.21060255851654
84.13433190598332
83.99527534991279
83.6112588763021
82.3043984175015
82.23497973599285
82.16648086787221
82.09868583366571
82.03147314310883
81.96488953478162
81.89899858208737
81.83386023109556
81.76952068306396
81.70600834277248
113.36557172444849
112.849693518639
112.33820670900602
111.83093226922978
111.32759246955595
110.82781216130972
110.33110284305245
109.83683553056534
109.34420319080014
108.85217147087107
108.35942107525773
107.8643552192992
107.36552126729353
106.86266352123593
106.23707412131327
105.61223136561682