# vtk DataFile Version 2.0
Niestacjonarne zagadnienie cieplne - ogrzewanie wody w garnku stalowym
ASCII
DATASET UNSTRUCTURED_GRID
POINTS 1353 float
0.0 0.0 0.0
0.0 0.0015384615384615385 0.0
0.0 0.003076923076923077 0.0
0.0 0.004615384615384615 0.0
0.0 0.006153846153846154 0.0
0.0 0.007692307692307693 0.0
0.0 0.00923076923076923 0.0
0.0 0.010769230769230769 0.0
0.0 0.012307692307692308 0.0
0.0 0.013846153846153847 0.0
0.0 0.015384615384615385 0.0
0.0 0.016923076923076923 0.0
0.0 0.01846153846153846 0.0
0.0 0.02 0.0
0.0 0.020555555555555556 0.0
0.0 0.021111111111111112 0.0
0.0 0.021666666666666667 0.0
0.0 0.022222222222222223 0.0
0.0 0.02277777777777778 0.0
0.0 0.023333333333333334 0.0
0.0 0.02388888888888889 0.0
0.0 0.024444444444444446 0.0
0.0 0.025 0.0
0.0 0.036111111111111115 0.0
0.0 0.04722222222222222 0.0
0.0 0.058333333333333334 0.0
0.0 0.06944444444444445 0.0
0.0 0.08055555555555556 0.0
0.0 0.09166666666666667 0.0
0.0 0.10277777777777777 0.0
0.0 0.1138888888888889 0.0
0.0 0.125 0.0
0.0 0.12555555555555556 0.0
0.0 0.12611111111111112 0.0
0.0 0.12666666666666668 0.0
0.0 0.1272222222222222 0.0
0.0 0.12777777777777777 0.0
0.0 0.12833333333333333 0.0
0.0 0.1288888888888889 0.0
0.0 0.12944444444444445 0.0
0.0 0.13 0.0
5.555555555555556E-4 0.0 0.0
5.555555555555556E-4 0.0015384615384615385 0.0
5.555555555555556E-4 0.003076923076923077 0.0
5.555555555555556E-4 0.004615384615384615 0.0
5.555555555555556E-4 0.006153846153846154 0.0
5.555555555555556E-4 0.007692307692307693 0.0
5.555555555555556E-4 0.00923076923076923 0.0
5.555555555555556E-4 0.010769230769230769 0.0
5.555555555555556E-4 0.012307692307692308 0.0
5.555555555555556E-4 0.013846153846153847 0.0
5.555555555555556E-4 0.015384615384615385 0.0
5.555555555555556E-4 0.016923076923076923 0.0
5.555555555555556E-4 0.01846153846153846 0.0
5.555555555555556E-4 0.02 0.0
5.555555555555556E-4 0.020555555555555556 0.0
5.555555555555556E-4 0.021111111111111112 0.0
5.555555555555556E-4 0.021666666666666667 0.0
5.555555555555556E-4 0.022222222222222223 0.0
5.555555555555556E-4 0.02277777777777778 0.0
5.555555555555556E-4 0.023333333333333334 0.0
5.555555555555556E-4 0.02388888888888889 0.0
5.555555555555556E-4 0.024444444444444446 0.0
5.555555555555556E-4 0.025 0.0
5.555555555555556E-4 0.036111111111111115 0.0
5.555555555555556E-4 0.04722222222222222 0.0
5.555555555555556E-4 0.058333333333333334 0.0
5.555555555555556E-4 0.06944444444444445 0.0
5.555555555555556E-4 0.08055555555555556 0.0
5.555555555555556E-4 0.09166666666666667 0.0
5.555555555555556E-4 0.10277777777777777 0.0
5.555555555555556E-4 0.1138888888888889 0.0
5.555555555555556E-4 0.125 0.0
5.555555555555556E-4 0.12555555555555556 0.0
5.555555555555556E-4 0.12611111111111112 0.0
5.555555555555556E-4 0.12666666666666668 0.0
5.555555555555556E-4 0.1272222222222222 0.0
5.555555555555556E-4 0.12777777777777777 0.0
5.555555555555556E-4 0.12833333333333333 0.0
5.555555555555556E-4 0.1288888888888889 0.0
5.555555555555556E-4 0.12944444444444445 0.0
5.555555555555556E-4 0.13 0.0
0.0011111111111111111 0.0 0.0
0.0011111111111111111 0.0015384615384615385 0.0
0.0011111111111111111 0.003076923076923077 0.0
0.0011111111111111111 0.004615384615384615 0.0
0.0011111111111111111 0.006153846153846154 0.0
0.0011111111111111111 0.007692307692307693 0.0
0.0011111111111111111 0.00923076923076923 0.0
0.0011111111111111111 0.010769230769230769 0.0
0.0011111111111111111 0.012307692307692308 0.0
0.0011111111111111111 0.013846153846153847 0.0
0.0011111111111111111 0.015384615384615385 0.0
0.0011111111111111111 0.016923076923076923 0.0
0.0011111111111111111 0.01846153846153846 0.0
0.0011111111111111111 0.02 0.0
0.0011111111111111111 0.020555555555555556 0.0
0.0011111111111111111 0.021111111111111112 0.0
0.0011111111111111111 0.021666666666666667 0.0
0.0011111111111111111 0.022222222222222223 0.0
0.0011111111111111111 0.02277777777777778 0.0
0.0011111111111111111 0.023333333333333334 0.0
0.0011111111111111111 0.02388888888888889 0.0
0.0011111111111111111 0.024444444444444446 0.0
0.0011111111111111111 0.025 0.0
0.0011111111111111111 0.036111111111111115 0.0
0.0011111111111111111 0.04722222222222222 0.0
0.0011111111111111111 0.058333333333333334 0.0
0.0011111111111111111 0.06944444444444445 0.0
0.0011111111111111111 0.08055555555555556 0.0
0.0011111111111111111 0.09166666666666667 0.0
0.0011111111111111111 0.10277777777777777 0.0
0.0011111111111111111 0.1138888888888889 0.0
0.0011111111111111111 0.125 0.0
0.0011111111111111111 0.12555555555555556 0.0
0.0011111111111111111 0.12611111111111112 0.0
0.0011111111111111111 0.12666666666666668 0.0
0.0011111111111111111 0.1272222222222222 0.0
0.0011111111111111111 0.12777777777777777 0.0
0.0011111111111111111 0.12833333333333333 0.0
0.0011111111111111111 0.1288888888888889 0.0
0.0011111111111111111 0.12944444444444445 0.0
0.0011111111111111111 0.13 0.0
0.0016666666666666666 0.0 0.0
0.0016666666666666666 0.0015384615384615385 0.0
0.0016666666666666666 0.003076923076923077 0.0
0.0016666666666666666 0.004615384615384615 0.0
0.0016666666666666666 0.006153846153846154 0.0
0.0016666666666666666 0.007692307692307693 0.0
0.0016666666666666666 0.00923076923076923 0.0
0.0016666666666666666 0.010769230769230769 0.0
0.0016666666666666666 0.012307692307692308 0.0
0.0016666666666666666 0.013846153846153847 0.0
0.0016666666666666666 0.015384615384615385 0.0
0.0016666666666666666 0.016923076923076923 0.0
0.0016666666666666666 0.01846153846153846 0.0
0.0016666666666666666 0.02 0.0
0.0016666666666666666 0.020555555555555556 0.0
0.0016666666666666666 0.021111111111111112 0.0
0.0016666666666666666 0.021666666666666667 0.0
0.0016666666666666666 0.022222222222222223 0.0
0.0016666666666666666 0.02277777777777778 0.0
0.0016666666666666666 0.023333333333333334 0.0
0.0016666666666666666 0.02388888888888889 0.0
0.0016666666666666666 0.024444444444444446 0.0
0.0016666666666666666 0.025 0.0
0.0016666666666666666 0.036111111111111115 0.0
0.0016666666666666666 0.04722222222222222 0.0
0.0016666666666666666 0.058333333333333334 0.0
0.0016666666666666666 0.06944444444444445 0.0
0.0016666666666666666 0.08055555555555556 0.0
0.0016666666666666666 0.09166666666666667 0.0
0.0016666666666666666 0.10277777777777777 0.0
0.0016666666666666666 0.1138888888888889 0.0
0.0016666666666666666 0.125 0.0
0.0016666666666666666 0.12555555555555556 0.0
0.0016666666666666666 0.12611111111111112 0.0
0.0016666666666666666 0.12666666666666668 0.0
0.0016666666666666666 0.1272222222222222 0.0
0.0016666666666666666 0.12777777777777777 0.0
0.0016666666666666666 0.12833333333333333 0.0
0.0016666666666666666 0.1288888888888889 0.0
0.0016666666666666666 0.12944444444444445 0.0
0.0016666666666666666 0.13 0.0
0.0022222222222222222 0.0 0.0
0.0022222222222222222 0.0015384615384615385 0.0
0.0022222222222222222 0.003076923076923077 0.0
0.0022222222222222222 0.004615384615384615 0.0
0.0022222222222222222 0.006153846153846154 0.0
0.0022222222222222222 0.007692307692307693 0.0
0.0022222222222222222 0.00923076923076923 0.0
0.0022222222222222222 0.010769230769230769 0.0
0.0022222222222222222 0.012307692307692308 0.0
0.0022222222222222222 0.013846153846153847 0.0
0.0022222222222222222 0.015384615384615385 0.0
0.0022222222222222222 0.016923076923076923 0.0
0.0022222222222222222 0.01846153846153846 0.0
0.0022222222222222222 0.02 0.0
0.0022222222222222222 0.020555555555555556 0.0
0.0022222222222222222 0.021111111111111112 0.0
0.0022222222222222222 0.021666666666666667 0.0
0.0022222222222222222 0.022222222222222223 0.0
0.0022222222222222222 0.02277777777777778 0.0
0.0022222222222222222 0.023333333333333334 0.0
0.0022222222222222222 0.02388888888888889 0.0
0.0022222222222222222 0.024444444444444446 0.0
0.0022222222222222222 0.025 0.0
0.0022222222222222222 0.036111111111111115 0.0
0.0022222222222222222 0.04722222222222222 0.0
0.0022222222222222222 0.058333333333333334 0.0
0.0022222222222222222 0.06944444444444445 0.0
0.0022222222222222222 0.08055555555555556 0.0
0.0022222222222222222 0.09166666666666667 0.0
0.0022222222222222222 0.10277777777777777 0.0
0.0022222222222222222 0.1138888888888889 0.0
0.0022222222222222222 0.125 0.0
0.0022222222222222222 0.12555555555555556 0.0
0.0022222222222222222 0.12611111111111112 0.0
0.0022222222222222222 0.12666666666666668 0.0
0.0022222222222222222 0.1272222222222222 0.0
0.0022222222222222222 0.12777777777777777 0.0
0.0022222222222222222 0.12833333333333333 0.0
0.0022222222222222222 0.1288888888888889 0.0
0.0022222222222222222 0.12944444444444445 0.0
0.0022222222222222222 0.13 0.0
0.002777777777777778 0.0 0.0
0.002777777777777778 0.0015384615384615385 0.0
0.002777777777777778 0.003076923076923077 0.0
0.002777777777777778 0.004615384615384615 0.0
0.002777777777777778 0.006153846153846154 0.0
0.002777777777777778 0.007692307692307693 0.0
0.002777777777777778 0.00923076923076923 0.0
0.002777777777777778 0.010769230769230769 0.0
0.002777777777777778 0.012307692307692308 0.0
0.002777777777777778 0.013846153846153847 0.0
0.002777777777777778 0.015384615384615385 0.0
0.002777777777777778 0.016923076923076923 0.0
0.002777777777777778 0.01846153846153846 0.0
0.002777777777777778 0.02 0.0
0.002777777777777778 0.020555555555555556 0.0
0.002777777777777778 0.021111111111111112 0.0
0.002777777777777778 0.021666666666666667 0.0
0.002777777777777778 0.022222222222222223 0.0
0.002777777777777778 0.02277777777777778 0.0
0.002777777777777778 0.023333333333333334 0.0
0.002777777777777778 0.02388888888888889 0.0
0.002777777777777778 0.024444444444444446 0.0
0.002777777777777778 0.025 0.0
0.002777777777777778 0.036111111111111115 0.0
0.002777777777777778 0.04722222222222222 0.0
0.002777777777777778 0.058333333333333334 0.0
0.002777777777777778 0.06944444444444445 0.0
0.002777777777777778 0.08055555555555556 0.0
0.002777777777777778 0.09166666666666667 0.0
0.002777777777777778 0.10277777777777777 0.0
0.002777777777777778 0.1138888888888889 0.0
0.002777777777777778 0.125 0.0
0.002777777777777778 0.12555555555555556 0.0
0.002777777777777778 0.12611111111111112 0.0
[...]
POINT_DATA 1353
SCALARS Temperatura float 1
LOOKUP_TABLE default
112.367869711515
111.85144434922843
111.33953410446665
110.83174697761669
110.32771088639868
109.82696277233042
109.32890458132967
108.83274600701485
108.33742624328022
107.84146204023753
107.34278642472066
106.83784035388496
106.32233482846188
105.77115492542274
105.04840037809754
104.3720364954917
103.71012904445861
103.05717336342788
102.40977001405712
101.76575202822671
101.12356699449862
100.48209479639102
99.84058903828233
88.66853845655572
84.61610519149434
83.42333193872459
83.01926009669303
82.88272675692508
82.79992577007471
82.65995417476198
82.21810800213919
81.01921077979861
80.95240994643055
80.88604962943215
80.82019538937057
80.75489647593773
80.69018982654589
80.62610311064944
80.56265667509159
80.49986455072582
80.43773483535573
112.39539169715846
111.87886022069411
111.36681732634995
110.85890346105072
110.35474714941375
109.85388863644002
109.35573282017471
108.85949517440208
108.36411862220682
107.86815265292036
107.36947167714013
106.86498862646236
106.34864267290506
105.80765037287767
105.12529005057428
104.45241636929265
103.79243362015804
103.14028612343469
102.49324393876668
101.84931979275092
101.20703193965171
100.56527840690016
99.92330836010228
88.72660052621617
84.68111218654546
83.48805181455668
83.08426287793863
82.94778416424425
82.86502763341635
82.72503080016116
82.2839546282856
81.08221827241817
81.01530593440302
80.9488449939458
80.8828987100587
80.81751429135025
80.75272717144655
80.68856411130972
80.62504503630478
80.5621838589247
80.49998868466729
112.42300869288144
111.90643042308226
111.39429877071518
110.88630548057074
110.38208844405484
109.88119622674881
109.38304389190185
108.88686123341644
108.39161695938162
107.89589544403157
107.39767822973187
106.89399797749464
106.37941414947626
105.84850878913065
105.18377504838979
104.52326577861871
103.86888636407623
103.22015997558039
102.57537641601706
101.93299707865324
101.2917029990893
100.65042646400003
100.00838982833598
88.76018225753285
84.7440766795869
83.55248890266799
83.15040634961947
83.01436035742769
82.93191213386609
82.79211415853015
82.35427827964715
81.1464450542249
81.07933713395168
81.01271252260644
80.94662693047431
80.88112105847931
80.81622572036171
80.75196504062603
80.68835785266803
80.62541787817551
80.56315335367997
112.45074973730597
111.93415565488945
111.421977297525
110.91395081354511
110.4097314859968
109.90888109681681
109.41083122316464
108.9148359007528
108.41990291315645
107.92468291565766
107.42729863407858
106.92499788510098
106.41366567162865
105.89109361010698
105.23857949697688
104.58828692219502
103.9413480684405
103.29778281678661
102.65681060227105
102.01729880195514
101.37807981443217
100.73807941408896
100.09642884533191
88.76876940606782
84.80525217936759
83.61657463975817
83.21771654043005
83.08244903905596
83.0005900133635
82.86117921137277
82.42913240411073
81.21185295618166
81.14447311661922
81.07762989661597
81.01136452765179
80.9457058728556
80.88067701515945
80.81629828540174
80.75258749500125
80.68955872094763
80.62722083303632
112.47862951980645
111.96203897309842
111.44985065054124
110.94183567947177
110.43767081503174
109.93693572277583
109.43908437070414
108.94340368110001
108.448953581695
107.9544758538142
107.45825733979882
106.9579004175894
106.45046918550285
105.93504680613846
105.29241936028865
104.65113355138799
104.011780851182
103.37438085778808
102.73841160711292
102.10296930939974
101.46693464191081
100.82912200871051
100.18844317511012
88.75150434536401
84.86507268213809
83.68019019201303
83.28623799625143
83.1520378084185
83.07107867186687
82.93218177660647
82.50860473124396
81.27837471493879
81.21066212483638
81.14356097656265
81.07708767896563
81.0112524961225
80.9460681144686
80.88155140828205
80.81772079323173
80.75459238020792
80.69217678373285
112.50665538826462
111.99008226324166
111.47791575216333
110.96995467200406
110.46589883254832
109.96534971292547
109.46778888263985
108.97254359218597
108.47873756466306
107.98522079398107
107.49047071779344
106.99249842174434
106.48924026675668
105.98026164753898
105.34639582930497
104.71345362950044
104.08170055799545
103.45105649679373
102.82105186681233
102.19083815841947
101.55922520929903
100.92476092856917
100.2859209232542
88.70715817553187
84.92416845531466
83.74315904515447
83.35603680897063
83.22310679799189
83.14340327404096
83.00505684907938
82.5928199614806
81.34590923267503
81.27783137503721
81.21045989862196
81.14376976552153
81.0777439543733
81.01238435527911
80.94770816871034
80.88373896614631
80.82049809348659
80.75799973028936
112.53483015899178
112.01828537716516
111.50616839999418
110.99830080137045
110.49440587001291
109.99410995443748
109.49692662144001
109.00222965907922
108.50921569539284
108.01685516471781
107.52383491857108
107.02856515720873
106.52959630763709
106.02666038150302
105.40100044316505
104.7760900456171
104.15200769637406
103.52860074770511
102.90541738797072
102.28164023968355
101.6559552329054
101.02648181793792
100.39090558486534
88.63408618517863
84.98339000671652
83.80523591282133
83.42720514612176
83.29562663028392
83.21759840143997
83.07971608257002
82.68194395806891
81.41431361276453
81.34588924949354
81.2782810255743
81.2113922525948
81.14517050808317
81.07961250778031
81.01474906680869
80.9506168151972
80.88724692989997
80.82465947785154
112.56315341263794
112.04664604319954
111.53460302220346
111.02686551638433
110.52318028541482
110.02320080191275
109.52647613727791
109.03243143691257
108.54034264365187
108.04930853089012
107.55823252584794
107.0658875281965
106.57126275336728
106.07415225461597
105.45644034804353
104.83945119220675
104.22317284781761
103.60743864387854
102.99186352251864
102.37575296367136
101.75792166149749
101.13592556989701
100.50614476351241
88.53015858076549
85.04384289507712
83.8660910157696
83.49986764319335
83.36955553267063
83.29371038174556
83.15604418909271
82.77619012039074
81.48338979360567
81.41473486396374
81.34699863470286
81.27997206871275
81.2135375112865
81.14774239894267
81.08265020506745
81.01832052941961
80.95479922822616
80.89211446731926
112.5916221934896
112.07515999139183
111.56321256591231
111.05563872615883
110.55220857995184
110.05260430100277
109.55641305780487
109.06311470573533
108.5720683034861
108.0825043800505
107.59354039882808
107.10427205814224
106.61402180304587
106.12262746231524
105.51276136284865
104.90368392840809
104.29535784318867
103.68765834939632
103.08033711843156
102.47296981187863
101.86482656300778
101.25472969276797
100.63534863643208
88.39265259554037
85.10693783111832
83.92528820255527
83.57419021682574
83.44483538470705
83.37180041869935
83.23389415511778
82.87582797700023
81.5528661729701
81.48419482088197
81.4167545827149
81.34957472452257
81.28286731473173
81.2167637571848
81.15137913994224
81.08680356156457
81.02310068378677
80.96030795863408
112.62023145100308
112.10382113114227
111.59198848439253
111.08460884112355
110.5814755308936
110.08230043265488
109.58671050519126
109.09424221988326
108.60433907586004
108.11636241048404
107.6296348150408
107.14354199465552
106.65768498977597
106.17195915269579
105.56991167304973
104.96877164343717
104.36851223198627
103.76908256840748
103.17041161716907
102.57243000818175
101.97512652198682
101.37866870228572
86.71803176266901
86.71803176266901
86.71803176266901
86.71803176266901
86.71803176266901
86.71803176266901
86.71803176266901
86.71803176266901
86.71803176266901
86.71803176266901
81.55528433167977
81.48778010478414
81.42030621373804
81.35318602559812
81.28665595201507
81.22088704034381
81.15600053126752
81.09207725216845
81.0291632609033
113.18038867664568
112.66556840502477
112.15764981758205
111.65670831253472
111.1628728067461
110.67633808937669
110.19738456248758
109.72640665489578
109.26395120566158
108.81076666067597
108.3678622102663
107.93657445915794
107.51864810597588
107.1163699282472
106.62992255796317
106.14738071893022
105.66936002958734
105.19651579939564
104.72955042460468
104.26921677250597
103.81631305679235
103.37166102323184
86.71803176266901
86.71803176266901
86.71803176266901
86.71803176266901
86.71803176266901
86.71803176266901
86.71803176266901
86.71803176266901
86.71803176266901
86.71803176266901
82.90957254562319
82.80772214042274
82.7116621730475
82.62107342949396
82.53570354378985
82.45535667292637
82.37988587170496
82.30918802742856
82.24320059073943
113.69124634220292
113.17748193535523
112.6718819973855
112.17449820213538
111.68541141164442
111.20472972451513
110.73258443984675
110.26912272289343
109.81449521910673
109.36883624380445
108.93223364313272
108.50468456419827
108.08602927877544
107.67584338414875
107.17283661294171
106.67154840358951
106.171769459107
105.67326340272894
105.1757591665328
104.67894380241326
104.18245680907762
103.68588811160029
86.71803176266901
86.71803176266901
86.71803176266901
86.71803176266901
86.71803176266901
86.71803176266901
86.71803176266901
86.71803176266901
86.71803176266901
86.71803176266901
83.28057602538388
83.20220299261968
83.12536998015439
83.05024522950825
82.97696066725527
82.90561739016132
82.83628979640963
82.76902848934012
82.70386222054167
114.095513870266
113.5820429415586
113.07664239913659
112.57931977728789
112.09008202319254
111.60893386065453
111.13587574521391
110.67090170918065
110.21399763992602
109.76514090434986
109.32430273560922
108.89145561742264
108.46658995727996
108.04974922592743
107.53862392843521
107.0295114452422
106.52246096756055
106.01753243573204
105.51480035126986
105.01435780918364
104.51632054009349
104.02083046584704
86.71803176266901
86.71803176266901
86.71803176266901
86.71803176266901
86.71803176266901
86.71803176266901
86.71803176266901
86.71803176266901
86.71803176266901
86.71803176266901
83.41720405854151
83.33848110191079
83.2618009379475
83.18710957849026
83.11436577678528
83.04353847399692
82.97460487325273
82.90754906436119
82.84236109699454
114.38907344852387
113.87567473936996
113.37000503879713
112.87206677907763
112.38185988638378
111.89938197186385
111.42462863262789
110.95759387513348
110.49827062160938
110.04665115323036
109.60272715752342
109.16648869723531
108.73792058684813
108.31699275831414
107.800443075267
107.28577687084004
106.7729768780918
106.26202202325052
105.75288592038339
105.24553517837137
104.73992753780792
104.23600992981345
86.71803176266901
86.71803176266901
86.71803176266901
86.71803176266901
86.71803176266901
86.71803176266901
86.71803176266901
86.71803176266901
86.71803176266901
86.71803176266901
83.45877388619516
83.38181668553158
83.30651205202464
83.23287779281141
83.16092680976965
83.09066812996447
83.02210767623936
82.95524881684462
82.8900927345973
114.58625060568055
114.07288895843539
113.56700548702227
113.06860297481572
112.57768193980989
112.09424060472651
111.61827483528455
111.14977802792457
110.6887409337631
110.23515142606422
109.78899426608236
109.35025103091337
108.9189006475876
108.4949216513744
107.97442112033399
107.45578900253048
106.93902478211909
106.42412907330069
105.91110415256928
105.39995458646266
104.89068796565476
104.38331573838035
86.71803176266901
86.71803176266901
86.71803176266901
86.71803176266901
86.71803176266901
86.71803176266901
86.71803176266901
86.71803176266901
86.71803176266901
86.71803176266901
83.47300115693682
83.3961764592084
83.3210340634745
83.24756729862739
83.1757709691363
83.10564096607735
83.03717397971903
82.97036729600129
82.90521866088876
114.69958613032274
114.18624431235548
113.68023344374777
113.18155622711647
112.6902131382989
112.20620242570317
111.72952011680293
111.26016003961591
110.7981138686852
110.34337120394665
109.89591968258085
109.45574509581898
109.02283139473721
108.5971602350375
108.07447112490863
107.553631631032
107.0346378652183
106.51748551505578
106.00216965653004
105.48868452266025
104.97702321851375
104.4671773767211
86.71803176266901
86.71803176266901
86.71803176266901
86.71803176266901
86.71803176266901
86.71803176266901
86.71803176266901
86.71803176266901
86.71803176266901
86.71803176266901
83.47737726946505
83.40069945142665
83.32567007679069
83.25228951647696
83.18055755953002
83.11047356109296
83.04203654993617
82.97524530363152
82.91009839809216
114.73654537270119
114.22320980472226
113.71715677053484
113.21838903423813
112.72690720909884
112.2427097658862
111.76579304268844
111.29615125237493
110.83377648192217
110.37865867636533
109.9307856013941
109.49014278971894
109.05671352035142
108.63047900961176
108.10705888827987
107.5854833418264
107.06574958603382
106.54785498900983
106.03179717872473
105.51757417966778
105.00518458643371
104.49462778089394
86.71803176266901
86.71803176266901
86.71803176266901
86.71803176266901
86.71803176266901
86.71803176266901
86.71803176266901
86.71803176266901
86.71803176266901
86.71803176266901
83.47840227671385
83.40173409698939
83.32671811281504
83.25335194345136
83.18163347639444
83.11156077776496
83.04313202794879
82.97634547703912
82.91119941573938
114.69958613032345
114.18624431235618
113.6802334437484
113.18155622711707
112.69021313829941
112.20620242570362
111.72952011680337
111.26016003961637
110.79811386868568
110.34337120394714
109.8959196825814
109.45574509581952
109.02283139473776
108.59716023503809
108.07447112490922
107.55363163103256
107.03463786521885
106.51748551505631
106.00216965653057
105.48868452266078
104.97702321851428
104.46717737672166
86.71803176266901
86.71803176266901
86.71803176266901
86.71803176266901
86.71803176266901
86.71803176266901
86.71803176266901
86.71803176266901
86.71803176266901
86.71803176266901
83.47737726946588
83.4006994514275
83.32567007679154
83.2522895164778
83.18055755953087
83.11047356109384
83.04203654993707
82.97524530363239
82.91009839809303
114.58625060568157
114.07288895843642
113.56700548702332
113.06860297481674
112.57768193981092
112.0942406047275
111.6182748352855
111.1497780279255
110.68874093376401
110.23515142606512
109.78899426608321
109.35025103091424
108.91890064758849
108.49492165137536
107.97442112033494
107.45578900253143
106.93902478212004
106.42412907330163
105.9111041525702
105.39995458646361
104.89068796565574
104.38331573838127
86.71803176266901
86.71803176266901
86.71803176266901
86.71803176266901
86.71803176266901
86.71803176266901
86.71803176266901
86.71803176266901
86.71803176266901
86.71803176266901
83.47300115693874
83.39617645921037
83.32103406347652
83.24756729862946
83.17577096913837
83.1056409660794
83.03717397972109
82.97036729600336
82.90521866089085
114.3890734485246
113.87567473937064
113.37000503879774
112.8720667790782
112.38185988638435
111.8993819718644
111.42462863262841
110.95759387513397
110.49827062160982
110.04665115323083
109.60272715752397
109.16648869723588
108.73792058684879
108.3169927583148
107.80044307526767
107.2857768708407
106.77297687809245
106.26202202325112
105.75288592038387
105.24553517837175
104.73992753780823
104.23600992981373
86.71803176266901
86.71803176266901
86.71803176266901
86.71803176266901
86.71803176266901
86.71803176266901
86.71803176266901
86.71803176266901
86.71803176266901
86.71803176266901
83.4587738862001
83.38181668553665
83.30651205202979
83.23287779281657
83.16092680977476
83.09066812996954
83.02210767624432
82.95524881684943
82.89009273460208
114.09551387026643
113.58204294155908
113.07664239913711
112.57931977728846
112.09008202319309
111.60893386065511
111.13587574521453
110.67090170918131
110.21399763992672
109.76514090435055
109.32430273560986
108.89145561742322
108.4665899572805
108.04974922592795
107.53862392843574
107.02951144524269
106.52246096756106
106.01753243573262
105.51480035127055
105.0143578091844
104.51632054009427
104.02083046584782
86.71803176266901
86.71803176266901
86.71803176266901
86.71803176266901
86.71803176266901
86.71803176266901
86.71803176266901
86.71803176266901
86.71803176266901
86.71803176266901
83.41720405854552
83.33848110191487
83.26180093795165
83.1871095784945
83.11436577678961
83.0435384740013
82.97460487325716
82.90754906436571
82.84236109699906
113.69124634220258
113.1774819353549
112.67188199738513
112.17449820213496
111.68541141164398
111.20472972451473
110.73258443984635
110.26912272289302
109.81449521910632
109.36883624380411
108.93223364313248
108.5046845641981
108.0860292787753
107.67584338414864
107.17283661294161
106.67154840358944
106.17176945910691
105.67326340272888
105.1757591665327
104.67894380241312
104.18245680907744
103.68588811160004
86.71803176266901
86.71803176266901
86.71803176266901
86.71803176266901
86.71803176266901
86.71803176266901
86.71803176266901
86.71803176266901
86.71803176266901
86.71803176266901
83.28057602538681
83.20220299262265
83.1253699801574
83.05024522951125
82.97696066725828
82.90561739016432
82.83628979641259
82.769028489343
82.70386222054456
113.18038867664484
112.66556840502396
112.15764981758124
111.65670831253391
111.1628728067453
110.67633808937593
110.19738456248692
109.72640665489509
109.2639512056609
108.81076666067536
108.36786221026581
107.93657445915753
107.51864810597549
107.11636992824683
106.62992255796287
106.14738071892992
105.66936002958707
105.19651579939534
104.7295504246044
104.26921677250566
103.816313056792
103.37166102323145
86.71803176266901
86.71803176266901
86.71803176266901
86.71803176266901
86.71803176266901
86.71803176266901
86.71803176266901
86.71803176266901
86.71803176266901
86.71803176266901
82.90957254562514
82.80772214042474
82.71166217304956
82.62107342949608
82.535703543792
82.45535667292853
82.37988587170712
82.30918802743079
82.24320059074167
112.62023145100196
112.10382113114113
111.59198848439152
111.08460884112274
110.58147553089297
110.08230043265442
109.58671050519077
109.09424221988282
108.60433907585964
108.11636241048365
107.62963481504033
107.14354199465504
106.65768498977557
106.17195915269552
105.56991167304956
104.96877164343718
104.36851223198644
103.76908256840784
103.17041161716955
102.57243000818234
101.9751265219875
101.3786687022864
86.71803176266901
86.71803176266901
86.71803176266901
86.71803176266901
86.71803176266901
86.71803176266901
86.71803176266901
86.71803176266901
86.71803176266901
86.71803176266901
81.55528433168186
81.48778010478628
81.42030621374023
81.35318602560035
81.28665595201734
81.22088704034607
81.15600053126978
81.09207725217063
81.02916326090546
112.59162219348846
112.07515999139065
111.5632125659114
111.05563872615801
110.5522085799513
110.0526043010023
109.55641305780433
109.063114705735
108.57206830348566
108.08250438005005
107.59354039882761
107.10427205814162
106.61402180304539
106.122627462315
105.51276136284855
104.90368392840809
104.2953578431889
103.68765834939663
103.08033711843203
102.47296981187924
101.86482656300842
101.25472969276866
100.63534863643284
88.39265259554247
85.10693783111842
83.92528820255512
83.57419021682745
83.44483538470772
83.37180041870015
83.23389415511849
82.875827976999
81.5528661729721
81.48419482088407
81.41675458271695
81.34957472452473
81.2828673147339
81.21676375718698
81.15137913994442
81.08680356156674
81.02310068378885
80.96030795863615
112.56315341263667
112.04664604319845
111.53460302220253
111.0268655163836
110.52318028541421
110.02320080191237
109.52647613727741
109.03243143691225
108.54034264365144
108.0493085308897
107.55823252584744
107.06588752819592
106.57126275336681
106.07415225461577
105.45644034804344
104.8394511922068
104.22317284781782
103.60743864387884
102.99186352251914
102.3757529636719
101.7579216614982
101.13592556989781
100.50614476351323
88.53015858076765
85.04384289507722
83.86609101576961
83.49986764319502
83.36955553267128
83.29371038174637
83.1560441890935
82.77619012038943
81.48338979360771
81.41473486396579
81.34699863470496
81.2799720687148
81.21353751128862
81.14774239894483
81.08265020506956
81.01832052942167
80.95479922822821
80.8921144673213
112.53483015899052
112.0182853771641
111.50616839999329
110.99830080136962
110.49440587001229
109.99410995443705
109.4969266214395
109.00222965907886
108.50921569539237
108.01685516471741
107.52383491857053
107.0285651572082
106.52959630763665
106.0266603815029
105.40100044316503
104.77609004561717