# vtk DataFile Version 2.0
Niestacjonarne zagadnienie cieplne - ogrzewanie wody w garnku stalowym
ASCII
DATASET UNSTRUCTURED_GRID
POINTS 1353 float
0.0 0.0 0.0
0.0 0.0015384615384615385 0.0
0.0 0.003076923076923077 0.0
0.0 0.004615384615384615 0.0
0.0 0.006153846153846154 0.0
0.0 0.007692307692307693 0.0
0.0 0.00923076923076923 0.0
0.0 0.010769230769230769 0.0
0.0 0.012307692307692308 0.0
0.0 0.013846153846153847 0.0
0.0 0.015384615384615385 0.0
0.0 0.016923076923076923 0.0
0.0 0.01846153846153846 0.0
0.0 0.02 0.0
0.0 0.020555555555555556 0.0
0.0 0.021111111111111112 0.0
0.0 0.021666666666666667 0.0
0.0 0.022222222222222223 0.0
0.0 0.02277777777777778 0.0
0.0 0.023333333333333334 0.0
0.0 0.02388888888888889 0.0
0.0 0.024444444444444446 0.0
0.0 0.025 0.0
0.0 0.036111111111111115 0.0
0.0 0.04722222222222222 0.0
0.0 0.058333333333333334 0.0
0.0 0.06944444444444445 0.0
0.0 0.08055555555555556 0.0
0.0 0.09166666666666667 0.0
0.0 0.10277777777777777 0.0
0.0 0.1138888888888889 0.0
0.0 0.125 0.0
0.0 0.12555555555555556 0.0
0.0 0.12611111111111112 0.0
0.0 0.12666666666666668 0.0
0.0 0.1272222222222222 0.0
0.0 0.12777777777777777 0.0
0.0 0.12833333333333333 0.0
0.0 0.1288888888888889 0.0
0.0 0.12944444444444445 0.0
0.0 0.13 0.0
5.555555555555556E-4 0.0 0.0
5.555555555555556E-4 0.0015384615384615385 0.0
5.555555555555556E-4 0.003076923076923077 0.0
5.555555555555556E-4 0.004615384615384615 0.0
5.555555555555556E-4 0.006153846153846154 0.0
5.555555555555556E-4 0.007692307692307693 0.0
5.555555555555556E-4 0.00923076923076923 0.0
5.555555555555556E-4 0.010769230769230769 0.0
5.555555555555556E-4 0.012307692307692308 0.0
5.555555555555556E-4 0.013846153846153847 0.0
5.555555555555556E-4 0.015384615384615385 0.0
5.555555555555556E-4 0.016923076923076923 0.0
5.555555555555556E-4 0.01846153846153846 0.0
5.555555555555556E-4 0.02 0.0
5.555555555555556E-4 0.020555555555555556 0.0
5.555555555555556E-4 0.021111111111111112 0.0
5.555555555555556E-4 0.021666666666666667 0.0
5.555555555555556E-4 0.022222222222222223 0.0
5.555555555555556E-4 0.02277777777777778 0.0
5.555555555555556E-4 0.023333333333333334 0.0
5.555555555555556E-4 0.02388888888888889 0.0
5.555555555555556E-4 0.024444444444444446 0.0
5.555555555555556E-4 0.025 0.0
5.555555555555556E-4 0.036111111111111115 0.0
5.555555555555556E-4 0.04722222222222222 0.0
5.555555555555556E-4 0.058333333333333334 0.0
5.555555555555556E-4 0.06944444444444445 0.0
5.555555555555556E-4 0.08055555555555556 0.0
5.555555555555556E-4 0.09166666666666667 0.0
5.555555555555556E-4 0.10277777777777777 0.0
5.555555555555556E-4 0.1138888888888889 0.0
5.555555555555556E-4 0.125 0.0
5.555555555555556E-4 0.12555555555555556 0.0
5.555555555555556E-4 0.12611111111111112 0.0
5.555555555555556E-4 0.12666666666666668 0.0
5.555555555555556E-4 0.1272222222222222 0.0
5.555555555555556E-4 0.12777777777777777 0.0
5.555555555555556E-4 0.12833333333333333 0.0
5.555555555555556E-4 0.1288888888888889 0.0
5.555555555555556E-4 0.12944444444444445 0.0
5.555555555555556E-4 0.13 0.0
0.0011111111111111111 0.0 0.0
0.0011111111111111111 0.0015384615384615385 0.0
0.0011111111111111111 0.003076923076923077 0.0
0.0011111111111111111 0.004615384615384615 0.0
0.0011111111111111111 0.006153846153846154 0.0
0.0011111111111111111 0.007692307692307693 0.0
0.0011111111111111111 0.00923076923076923 0.0
0.0011111111111111111 0.010769230769230769 0.0
0.0011111111111111111 0.012307692307692308 0.0
0.0011111111111111111 0.013846153846153847 0.0
0.0011111111111111111 0.015384615384615385 0.0
0.0011111111111111111 0.016923076923076923 0.0
0.0011111111111111111 0.01846153846153846 0.0
0.0011111111111111111 0.02 0.0
0.0011111111111111111 0.020555555555555556 0.0
0.0011111111111111111 0.021111111111111112 0.0
0.0011111111111111111 0.021666666666666667 0.0
0.0011111111111111111 0.022222222222222223 0.0
0.0011111111111111111 0.02277777777777778 0.0
0.0011111111111111111 0.023333333333333334 0.0
0.0011111111111111111 0.02388888888888889 0.0
0.0011111111111111111 0.024444444444444446 0.0
0.0011111111111111111 0.025 0.0
0.0011111111111111111 0.036111111111111115 0.0
0.0011111111111111111 0.04722222222222222 0.0
0.0011111111111111111 0.058333333333333334 0.0
0.0011111111111111111 0.06944444444444445 0.0
0.0011111111111111111 0.08055555555555556 0.0
0.0011111111111111111 0.09166666666666667 0.0
0.0011111111111111111 0.10277777777777777 0.0
0.0011111111111111111 0.1138888888888889 0.0
0.0011111111111111111 0.125 0.0
0.0011111111111111111 0.12555555555555556 0.0
0.0011111111111111111 0.12611111111111112 0.0
0.0011111111111111111 0.12666666666666668 0.0
0.0011111111111111111 0.1272222222222222 0.0
0.0011111111111111111 0.12777777777777777 0.0
0.0011111111111111111 0.12833333333333333 0.0
0.0011111111111111111 0.1288888888888889 0.0
0.0011111111111111111 0.12944444444444445 0.0
0.0011111111111111111 0.13 0.0
0.0016666666666666666 0.0 0.0
0.0016666666666666666 0.0015384615384615385 0.0
0.0016666666666666666 0.003076923076923077 0.0
0.0016666666666666666 0.004615384615384615 0.0
0.0016666666666666666 0.006153846153846154 0.0
0.0016666666666666666 0.007692307692307693 0.0
0.0016666666666666666 0.00923076923076923 0.0
0.0016666666666666666 0.010769230769230769 0.0
0.0016666666666666666 0.012307692307692308 0.0
0.0016666666666666666 0.013846153846153847 0.0
0.0016666666666666666 0.015384615384615385 0.0
0.0016666666666666666 0.016923076923076923 0.0
0.0016666666666666666 0.01846153846153846 0.0
0.0016666666666666666 0.02 0.0
0.0016666666666666666 0.020555555555555556 0.0
0.0016666666666666666 0.021111111111111112 0.0
0.0016666666666666666 0.021666666666666667 0.0
0.0016666666666666666 0.022222222222222223 0.0
0.0016666666666666666 0.02277777777777778 0.0
0.0016666666666666666 0.023333333333333334 0.0
0.0016666666666666666 0.02388888888888889 0.0
0.0016666666666666666 0.024444444444444446 0.0
0.0016666666666666666 0.025 0.0
0.0016666666666666666 0.036111111111111115 0.0
0.0016666666666666666 0.04722222222222222 0.0
0.0016666666666666666 0.058333333333333334 0.0
0.0016666666666666666 0.06944444444444445 0.0
0.0016666666666666666 0.08055555555555556 0.0
0.0016666666666666666 0.09166666666666667 0.0
0.0016666666666666666 0.10277777777777777 0.0
0.0016666666666666666 0.1138888888888889 0.0
0.0016666666666666666 0.125 0.0
0.0016666666666666666 0.12555555555555556 0.0
0.0016666666666666666 0.12611111111111112 0.0
0.0016666666666666666 0.12666666666666668 0.0
0.0016666666666666666 0.1272222222222222 0.0
0.0016666666666666666 0.12777777777777777 0.0
0.0016666666666666666 0.12833333333333333 0.0
0.0016666666666666666 0.1288888888888889 0.0
0.0016666666666666666 0.12944444444444445 0.0
0.0016666666666666666 0.13 0.0
0.0022222222222222222 0.0 0.0
0.0022222222222222222 0.0015384615384615385 0.0
0.0022222222222222222 0.003076923076923077 0.0
0.0022222222222222222 0.004615384615384615 0.0
0.0022222222222222222 0.006153846153846154 0.0
0.0022222222222222222 0.007692307692307693 0.0
0.0022222222222222222 0.00923076923076923 0.0
0.0022222222222222222 0.010769230769230769 0.0
0.0022222222222222222 0.012307692307692308 0.0
0.0022222222222222222 0.013846153846153847 0.0
0.0022222222222222222 0.015384615384615385 0.0
0.0022222222222222222 0.016923076923076923 0.0
0.0022222222222222222 0.01846153846153846 0.0
0.0022222222222222222 0.02 0.0
0.0022222222222222222 0.020555555555555556 0.0
0.0022222222222222222 0.021111111111111112 0.0
0.0022222222222222222 0.021666666666666667 0.0
0.0022222222222222222 0.022222222222222223 0.0
0.0022222222222222222 0.02277777777777778 0.0
0.0022222222222222222 0.023333333333333334 0.0
0.0022222222222222222 0.02388888888888889 0.0
0.0022222222222222222 0.024444444444444446 0.0
0.0022222222222222222 0.025 0.0
0.0022222222222222222 0.036111111111111115 0.0
0.0022222222222222222 0.04722222222222222 0.0
0.0022222222222222222 0.058333333333333334 0.0
0.0022222222222222222 0.06944444444444445 0.0
0.0022222222222222222 0.08055555555555556 0.0
0.0022222222222222222 0.09166666666666667 0.0
0.0022222222222222222 0.10277777777777777 0.0
0.0022222222222222222 0.1138888888888889 0.0
0.0022222222222222222 0.125 0.0
0.0022222222222222222 0.12555555555555556 0.0
0.0022222222222222222 0.12611111111111112 0.0
0.0022222222222222222 0.12666666666666668 0.0
0.0022222222222222222 0.1272222222222222 0.0
0.0022222222222222222 0.12777777777777777 0.0
0.0022222222222222222 0.12833333333333333 0.0
0.0022222222222222222 0.1288888888888889 0.0
0.0022222222222222222 0.12944444444444445 0.0
0.0022222222222222222 0.13 0.0
0.002777777777777778 0.0 0.0
0.002777777777777778 0.0015384615384615385 0.0
0.002777777777777778 0.003076923076923077 0.0
0.002777777777777778 0.004615384615384615 0.0
0.002777777777777778 0.006153846153846154 0.0
0.002777777777777778 0.007692307692307693 0.0
0.002777777777777778 0.00923076923076923 0.0
0.002777777777777778 0.010769230769230769 0.0
0.002777777777777778 0.012307692307692308 0.0
0.002777777777777778 0.013846153846153847 0.0
0.002777777777777778 0.015384615384615385 0.0
0.002777777777777778 0.016923076923076923 0.0
0.002777777777777778 0.01846153846153846 0.0
0.002777777777777778 0.02 0.0
0.002777777777777778 0.020555555555555556 0.0
0.002777777777777778 0.021111111111111112 0.0
0.002777777777777778 0.021666666666666667 0.0
0.002777777777777778 0.022222222222222223 0.0
0.002777777777777778 0.02277777777777778 0.0
0.002777777777777778 0.023333333333333334 0.0
0.002777777777777778 0.02388888888888889 0.0
0.002777777777777778 0.024444444444444446 0.0
0.002777777777777778 0.025 0.0
0.002777777777777778 0.036111111111111115 0.0
0.002777777777777778 0.04722222222222222 0.0
0.002777777777777778 0.058333333333333334 0.0
0.002777777777777778 0.06944444444444445 0.0
0.002777777777777778 0.08055555555555556 0.0
0.002777777777777778 0.09166666666666667 0.0
0.002777777777777778 0.10277777777777777 0.0
0.002777777777777778 0.1138888888888889 0.0
0.002777777777777778 0.125 0.0
0.002777777777777778 0.12555555555555556 0.0
0.002777777777777778 0.12611111111111112 0.0
[...]
POINT_DATA 1353
SCALARS Temperatura float 1
LOOKUP_TABLE default
116.05628674689991
115.54281867904659
115.03369942392614
114.52853378180185
114.02694414675719
113.52845912876876
113.03246871643545
112.5381655881542
112.04446460401302
111.5498457109044
111.05218757629633
110.5478224178837
110.03233441929507
109.47959396110127
108.75319578348885
108.07515834568343
107.41219082929821
106.75857379738544
106.110783170567
105.46657879092267
104.82435820847512
104.18296433846427
103.54162167949856
92.37916806502271
88.3307933422623
87.13905719673362
86.73516332252065
86.59809044730275
86.51321067468668
86.36693643354451
85.90374415133547
84.6459776136153
84.57569484039995
84.50583782568249
84.43647022698013
84.36763879566547
84.29937782954936
84.23171256043187
84.16466132089447
84.09823666967664
84.0324458243369
116.08490631789951
115.57133308005447
115.06208220339164
114.55679094985712
114.05508234849884
113.55648836365917
113.06040200948667
112.56602192733881
112.07226678357824
111.57765056970968
111.0799906433403
110.57611145054108
110.05974831889202
109.51763824071274
108.83339636639336
108.1590163984165
107.49807332222043
106.84531629008808
106.19792015631783
105.55383303956955
104.91152735044655
104.26986633519405
103.62807136796764
92.44101771929255
88.39957534046503
87.20755339481457
86.80394207185607
86.66692408106321
86.5820901232658
86.43578969411469
85.97340149479788
84.71267655094334
84.64227922014815
84.5723190721416
84.5028571882207
84.43393804051578
84.36559424751222
84.29785002350206
84.23072322465907
84.16422627109598
84.09836638421778
116.11362056680997
115.60000160726236
115.09066339352077
114.58529453195042
114.08352750674514
113.58490275147057
113.08882370178084
112.59450373077155
112.1008881412357
111.60652696732562
111.10934885888616
110.60630255913038
110.09176978480248
109.56017370805925
108.89431279417367
108.23282462492612
107.5777201764824
106.92852593613141
106.28348197274141
105.641006840385
104.9997462052796
104.35860340092502
103.71677660440136
92.47837391897912
88.46626826406303
87.27572081353712
86.87381443208446
86.73723100642377
86.65271382604182
86.50662179689438
86.0476210112141
84.78056009867569
84.70996543251496
84.63984152562355
84.5702410402204
84.50120120486861
84.43274949584426
84.36490718518345
84.29769089880357
84.23111282796988
84.16518032803673
116.1424584828287
115.62882490788621
115.11944179708549
114.61404223739827
114.11227624974211
113.61369773033607
113.11772703904185
112.62360249386452
112.13030972355934
111.63646732454696
111.14015044893102
110.63853124304764
110.12737320466519
109.60444838778642
108.95130547520323
108.3004452309366
107.6530720614134
107.00923145244641
106.36813536376049
105.72862967659644
105.08952380914116
104.44972208347822
103.80833651600307
92.49072220021152
88.5311254235553
87.34349089065508
86.9448063853336
86.80900477072265
86.72509280023556
86.57940645421347
86.1264584987797
84.84958745116943
84.77872133546644
84.70838207942629
84.63860623446445
84.56941787829818
84.50083589544997
84.43287732411383
84.36555762307087
84.29888934598495
84.23288052961453
116.17143467353823
115.65780595401904
115.14841506327434
114.64303017285707
114.14132297405483
113.64286558135788
113.1471013005953
112.65330228137486
112.16050794297036
111.66743113794809
111.1723171344308
110.67270649696366
110.16559110286079
109.65008898043678
109.00720835422254
108.36569060234919
107.7261759135473
107.08871015456202
106.45277728983437
105.81746667808825
105.18164635214178
104.54411647954296
103.90377479781844
92.47720465650308
88.59458049488062
87.41074483167489
87.01696243276075
86.88223273695037
86.79924495498153
86.65409736540877
86.21000565794337
84.91968672888324
84.8484923521492
84.77790351894343
84.70792922800239
84.63857294214291
84.56984201243323
84.50174960301483
84.43431178249152
84.36754330428539
84.30145410565916
116.20055637341666
115.68694651354315
115.17757998352836
114.67225277614676
114.17065988349319
113.67239564645243
113.17693165310008
112.68358152467727
112.19145046573252
111.69936319548232
111.20576242549696
110.70861321118682
110.20581495332081
109.69698547920187
109.0631720999442
108.43028209897834
107.79861480863096
107.16811191613675
106.5383133640374
105.90837069318121
105.27708802471196
104.64300479531275
104.00458724235563
92.43659214413285
88.65726327523379
87.47730620812325
87.09034862511122
86.95689470669346
86.87519623620129
86.73062644918156
86.29839296334582
84.99074981757839
84.91920187650958
84.84835909456466
84.77818457533608
84.70865164718501
84.63975570853508
84.57151020694597
84.50393680366278
84.43705596751323
84.37088153899505
116.22982625481194
115.71624628903037
115.20693218957292
114.70170286069371
114.2002770611162
113.70227448010877
113.20719948531362
112.714413534173
112.22309697084084
111.73219893690788
111.24037894292232
110.74601612142573
110.24764727702546
109.74505908673525
109.11971289673063
108.49510336418663
107.87133288210012
107.24826577681294
106.6254595599029
106.00209952786415
105.37686977974728
104.74788534521936
104.11282628179927
92.36723985006027
88.72002362033066
87.54292987567129
87.165057095728
87.03296085625168
86.95298233704291
86.80890118852773
86.3917941536709
85.0626236775369
84.99075385352444
84.91970358257716
84.84935694317392
84.77964836300349
84.71056763583894
84.6421429653898
84.57441028639937
84.50740084537243
84.44113494952813
116.25924372516444
115.74570282933753
115.23646591057562
114.73137164009722
114.23016256974452
113.73248604455802
113.2378827948001
112.74576704041623
112.25540081612503
111.76586574240693
111.27604534733243
110.78469447396249
110.2908037979984
109.79421833842265
109.17705187807508
108.56058736827221
107.9448298054644
107.32962524191143
106.71459639465503
106.0990518054432
105.48180537568702
104.86041202735629
104.23124921706861
92.26701812047929
88.78396622239703
87.60728626365615
87.24121245876815
87.11038882114153
87.03265111262917
86.88880082196788
86.49043308946575
85.13509570433365
85.06304373721035
84.9919154209201
84.92147083990274
84.85157527954495
84.78227307205228
84.71362813566951
84.6457016104856
84.578540887365
84.51217519493824
116.28880562785436
115.77531165651422
115.26617386362312
114.76124875280354
114.26030257320802
113.7630119411348
113.26895659118323
112.77760691398856
112.28831047895216
111.80028478587799
111.31263450651142
110.82444824015023
110.33505986902982
109.84435267382986
109.23524341629309
108.62689684924764
108.01928749420341
107.41229977320855
106.80569123264524
106.1990399219274
105.59161505756201
104.98223269523585
104.36357639186481
92.13320461602912
88.8505006899055
87.66993950341461
87.3189806327779
87.18911969950248
87.11426583433628
86.97017124460797
86.59459313470681
85.20787313829747
85.13589629754534
85.06515471146095
84.99460555277071
84.92446464377348
84.85486853678078
84.78593788141636
84.71776741771046
84.65042418459794
84.5839476747975
116.3185066854915
115.80506644533222
115.29604724325841
114.79132230637303
114.2906814741694
113.79383166273139
113.30039332729797
112.80989494149163
112.32177088607047
111.83537341003913
111.35001884356264
110.86509506635598
110.38022179072111
109.8953343480357
109.29424120643434
108.6940260297359
108.09466989201705
107.49612820702497
106.89833404142014
106.30121951084969
105.70477190827582
105.10915408547793
90.57480375409958
90.57480375409958
90.57480375409958
90.57480375409958
90.57480375409958
90.57480375409958
90.57480375409958
90.57480375409958
90.57480375409958
90.57480375409958
85.21040107555433
85.13968463972994
85.06888673327236
84.99835444919586
84.92834059046783
84.85902767863821
84.79054491035528
84.7229783558287
84.65637707166157
116.89900119997013
116.38719304535441
115.88218172408078
115.38404426368245
114.89291253696099
114.40898590230951
113.93255136938221
113.46401259012826
113.00392896478634
112.55306563968789
112.11245332907538
111.68345521832143
111.26784739246807
110.86795342863758
110.38451758393629
109.90498353420547
109.42997612966202
108.9601607569215
108.49625098620454
108.03901219855652
107.58925671410256
107.14782223312174
90.57480375409958
90.57480375409958
90.57480375409958
90.57480375409958
90.57480375409958
90.57480375409958
90.57480375409958
90.57480375409958
90.57480375409958
90.57480375409958
86.62980091598133
86.52332829724193
86.42279366555653
86.3278616448229
86.23826761221011
86.15380648299367
86.07432453205479
85.99971398417944
85.9299095319072
117.42737302690502
116.91664561092456
116.41399846307155
115.91948412201496
115.43318490361747
114.95521088630522
114.48569576267793
114.02478931891463
113.57264475891347
113.12939847379337
112.69513934749352
112.26986386093824
111.8534090835791
111.4453434355398
110.9448925807208
110.44611832621025
109.9488079457686
109.45272114223404
108.95758228003253
108.46307302926452
107.96882650678087
107.47442504914798
90.57480375409958
90.57480375409958
90.57480375409958
90.57480375409958
90.57480375409958
90.57480375409958
90.57480375409958
90.57480375409958
90.57480375409958
90.57480375409958
87.01907266736372
86.93716164833923
86.85673925152534
86.77798194819061
86.70102800524784
86.62598333917958
86.55292589361684
86.48190870702109
86.41296196184126
117.84527515208836
117.3348484153357
116.83239946523031
116.33793573039411
115.85146401058569
115.37298880973734
114.90251025390023
114.44002190009581
113.9855089907631
113.53894808163038
113.10030947459218
112.66956470638746
112.24670343104412
111.83176904231536
111.32292870110517
110.81606214121848
110.31121915238074
109.80846045692785
109.307861591558
108.8095170182367
108.31354425771495
107.82008755180587
90.57480375409958
90.57480375409958
90.57480375409958
90.57480375409958
90.57480375409958
90.57480375409958
90.57480375409958
90.57480375409958
90.57480375409958
90.57480375409958
87.16239003951095
87.08012777971459
86.99987847308978
86.92158571492662
86.84520648099928
86.77070842461093
86.69806784691103
86.62726825045797
86.55829936559519
118.14874423202706
117.63839191357074
117.13566402948346
116.64056281049933
116.15308790644436
115.67323658088333
115.20100401741715
114.7363837497719
114.27936817500401
113.82994900087006
113.3881172909311
112.95386241877745
112.52716840007477
112.10800412635936
111.59355239058974
111.08094223908508
110.57015601629662
110.06117219698413
109.55396385479288
109.04849693856313
108.54472837219758
108.04260406855678
90.57480375409958
90.57480375409958
90.57480375409958
90.57480375409958
90.57480375409958
90.57480375409958
90.57480375409958
90.57480375409958
90.57480375409958
90.57480375409958
87.20602543249124
87.12561245697685
87.04680391533134
86.9696185658673
86.89407002356917
86.82016784653956
86.74791834595183
86.67732516289658
86.60838965548338
118.35260286123214
117.8422888334208
117.33933985179824
116.8437585060958
116.35554505335712
115.87469738746317
115.4012109763022
114.93507874769693
114.47629091083593
114.02483472076244
113.5806942414103
113.14385027219915
112.71428088755833
112.29196372528168
111.77342927924285
111.25672046546013
110.7418366378748
110.22877829887038
109.7175476404647
109.20814918298034
108.70059052279231
108.19488318289567
90.57480375409958
90.57480375409958
90.57480375409958
90.57480375409958
90.57480375409958
90.57480375409958
90.57480375409958
90.57480375409958
90.57480375409958
90.57480375409958
87.22096035714645
87.14068750189531
87.062049973687
86.98504091060157
86.9096549987464
86.83588806308896
86.7637367658163
86.69319839298582
86.6242707124253
118.46979042558907
117.95949690084214
117.4564161927126
116.96055081089979
116.47190097455453
115.99046461173835
115.51623736620269
115.04921261943154
114.58938153757306
114.13673315172805
113.69125447173546
113.25293060529873
112.82174476524182
112.39767780951252
111.87688020860908
111.35788881121294
110.84069956020635
110.32530796784387
109.81170892533005
109.29989646758045
108.78986348319856
108.28160136343243
90.57480375409958
90.57480375409958
90.57480375409958
90.57480375409958
90.57480375409958
90.57480375409958
90.57480375409958
90.57480375409958
90.57480375409958
90.57480375409958
87.22555631280724
87.14543745279879
87.06691846058678
86.9899998408864
86.91468149045424
86.84096285350732
86.76884303445695
86.69832087664763
86.62939501421533
118.50800785997568
117.99772080088107
117.49459650040214
116.99863753166463
116.50984425552315
116.02821482912499
115.55374521602148
115.08642919393964
114.62625835435999
114.173222086576
113.7273075401496
113.28849957082434
112.85678071950889
112.43213140580782
111.9105781470233
111.39082585322925
110.8728715885509
110.35671257205622
109.84234628703588
109.3297706199321
108.81898403694225
108.3099858051969
90.57480375409958
90.57480375409958
90.57480375409958
90.57480375409958
90.57480375409958
90.57480375409958
90.57480375409958
90.57480375409958
90.57480375409958
90.57480375409958
87.22663285567647
87.14652419893719
87.0680193159404
86.99111583281396
86.91581165817938
86.84210488910317
86.76999374365364
86.69947651424613
86.63055153719151
118.46979042558978
117.95949690084284
117.45641619271326
116.96055081090039
116.47190097455504
115.99046461173877
115.51623736620309
115.04921261943196
114.5893815375735
114.13673315172852
113.69125447173595
113.25293060529926
112.82174476524234
112.39767780951304
111.87688020860962
111.35788881121346
110.84069956020687
110.32530796784434
109.81170892533052
109.29989646758092
108.78986348319904
108.28160136343294
90.57480375409958
90.57480375409958
90.57480375409958
90.57480375409958
90.57480375409958
90.57480375409958
90.57480375409958
90.57480375409958
90.57480375409958
90.57480375409958
87.22555631280801
87.1454374527996
87.06691846058759
86.98999984088722
86.9146814904551
86.8409628535082
86.76884303445783
86.6983208766485
86.62939501421619
118.35260286123321
117.84228883342189
117.33933985179932
116.84375850609685
116.35554505335814
115.87469738746415
115.40121097630315
114.93507874769787
114.47629091083681
114.02483472076334
113.58069424141118
113.1438502722
112.71428088755924
112.29196372528264
111.77342927924379
111.25672046546103
110.7418366378757
110.22877829887126
109.7175476404656
109.20814918298124
108.70059052279325
108.19488318289658
90.57480375409958
90.57480375409958
90.57480375409958
90.57480375409958
90.57480375409958
90.57480375409958
90.57480375409958
90.57480375409958
90.57480375409958
90.57480375409958
87.22096035714848
87.14068750189739
87.06204997368911
86.98504091060376
86.9096549987486
86.83588806309115
86.76373676581849
86.69319839298801
86.62427071242746
118.14874423202791
117.63839191357154
117.13566402948423
116.64056281050007
116.15308790644504
115.673236580884
115.20100401741774
114.73638374977246
114.27936817500454
113.82994900087056
113.38811729093172
112.9538624187781
112.52716840007545
112.10800412636006
111.59355239059047
111.08094223908581
110.57015601629733
110.06117219698477
109.5539638547934
109.04849693856355
108.54472837219795
108.04260406855711
90.57480375409958
90.57480375409958
90.57480375409958
90.57480375409958
90.57480375409958
90.57480375409958
90.57480375409958
90.57480375409958
90.57480375409958
90.57480375409958
87.20602543249645
87.1256124569822
87.04680391533678
86.96961856587272
86.89407002357459
86.8201678465449
86.74791834595706
86.67732516290167
86.60838965548844
117.8452751520889
117.33484841533625
116.83239946523092
116.3379357303948
115.85146401058641
115.37298880973803
114.90251025390097
114.44002190009658
113.9855089907639
113.5389480816312
113.10030947459295
112.66956470638819
112.24670343104476
111.83176904231594
111.32292870110578
110.81606214121902
110.31121915238131
109.80846045692847
109.30786159155873
108.80951701823751
108.31354425771578
107.82008755180667
90.57480375409958
90.57480375409958
90.57480375409958
90.57480375409958
90.57480375409958
90.57480375409958
90.57480375409958
90.57480375409958
90.57480375409958
90.57480375409958
87.16239003951516
87.08012777971885
86.99987847309413
86.92158571493106
86.84520648100381
86.77070842461552
86.69806784691566
86.62726825046268
86.5582993655999
117.42737302690466
116.91664561092422
116.41399846307117
115.91948412201454
115.43318490361705
114.95521088630488
114.4856957626776
114.0247893189143
113.57264475891313
113.12939847379307
112.69513934749332
112.26986386093813
111.853409083579
111.44534343553973
110.94489258072075
110.44611832621024
109.94880794576856
109.45272114223404
108.95758228003244
108.4630730292644
107.9688265067807
107.47442504914775
90.57480375409958
90.57480375409958
90.57480375409958
90.57480375409958
90.57480375409958
90.57480375409958
90.57480375409958
90.57480375409958
90.57480375409958
90.57480375409958
87.01907266736677
86.93716164834234
86.85673925152848
86.77798194819376
86.70102800525098
86.62598333918271
86.55292589361993
86.48190870702415
86.41296196184435
116.8990011999693
116.38719304535361
115.88218172408
115.38404426368169
114.89291253696021
114.40898590230874
113.9325513693815
113.46401259012755
113.00392896478567
112.55306563968728
112.11245332907488
111.68345521832107
111.26784739246774
110.86795342863728
110.38451758393602
109.90498353420524
109.42997612966181
108.96016075692124
108.4962509862043
108.03901219855625
107.58925671410228
107.14782223312145
90.57480375409958
90.57480375409958
90.57480375409958
90.57480375409958
90.57480375409958
90.57480375409958
90.57480375409958
90.57480375409958
90.57480375409958
90.57480375409958
86.62980091598347
86.52332829724409
86.42279366555876
86.32786164482519
86.23826761221243
86.153806482996
86.07432453205715
85.99971398418187
85.92990953190962
116.31850668549036
115.80506644533105
115.29604724325736
114.79132230637217
114.29068147416872
113.79383166273088
113.30039332729756
112.80989494149125
112.3217708860701
111.83537341003873
111.35001884356215
110.86509506635544
110.38022179072065
109.89533434803533
109.29424120643417
108.69402602973588
108.09466989201721
107.49612820702531
106.8983340414206
106.30121951085027
105.70477190827646
105.10915408547862
90.57480375409958
90.57480375409958
90.57480375409958
90.57480375409958
90.57480375409958
90.57480375409958
90.57480375409958
90.57480375409958
90.57480375409958
90.57480375409958
85.2104010755567
85.13968463973238
85.06888673327482
84.99835444919836
84.92834059047037
84.85902767864076
84.79054491035781
84.72297835583119
84.65637707166407
116.28880562785305
115.77531165651301
115.26617386362217
114.76124875280252
114.26030257320731
113.76301194113427
113.2689565911828
112.7776069139882
112.28831047895177
111.80028478587751
111.31263450651086
110.82444824014966
110.3350598690293
109.84435267382953
109.23524341629286
108.62689684924764
108.01928749420361
107.4122997732089
106.8056912326458
106.19903992192799
105.59161505756265
104.98223269523663
104.36357639186546
92.13320461603142
88.85050068990536
87.6699395034145
87.31898063277957
87.18911969950311
87.11426583433705
86.97017124460898
86.59459313470569
85.20787313829975
85.13589629754769
85.06515471146332
84.99460555277315
84.92446464377596
84.85486853678326
84.78593788141882
84.7177674177129
84.65042418460045
84.5839476748
116.25924372516306
115.74570282933632
115.23646591057455
114.73137164009631
114.23016256974383
113.73248604455739
113.23788279479966
112.74576704041577
112.25540081612458
111.76586574240646
111.27604534733202
110.78469447396186
110.29080379799798
109.79421833842233
109.17705187807496
108.56058736827222
107.94482980546461
107.32962524191178
106.71459639465557
106.09905180544378
105.48180537568774
104.86041202735709
104.23124921706939
92.26701812048164
88.783966222397
87.60728626365618
87.24121245876985
87.11038882114217
87.03265111262998
86.88880082196897
86.49043308946462
85.135095704336
85.0630437372127
84.99191542092252
84.92147083990515
84.85157527954733
84.78227307205468
84.71362813567193
84.64570161048799
84.57854088736747
84.51217519494065
116.22982625481062
115.71624628902924
115.2069321895718
114.70170286069282
114.20027706111546
113.70227448010809
113.20719948531311
112.7144135341726
112.22309697084033
111.73219893690747
111.24037894292181
110.74601612142526
110.24764727702498
109.74505908673501
109.11971289673056
108.49510336418669