# vtk DataFile Version 2.0
Niestacjonarne zagadnienie cieplne - ogrzewanie wody w garnku stalowym
ASCII
DATASET UNSTRUCTURED_GRID
POINTS 1353 float
0.0 0.0 0.0
0.0 0.0015384615384615385 0.0
0.0 0.003076923076923077 0.0
0.0 0.004615384615384615 0.0
0.0 0.006153846153846154 0.0
0.0 0.007692307692307693 0.0
0.0 0.00923076923076923 0.0
0.0 0.010769230769230769 0.0
0.0 0.012307692307692308 0.0
0.0 0.013846153846153847 0.0
0.0 0.015384615384615385 0.0
0.0 0.016923076923076923 0.0
0.0 0.01846153846153846 0.0
0.0 0.02 0.0
0.0 0.020555555555555556 0.0
0.0 0.021111111111111112 0.0
0.0 0.021666666666666667 0.0
0.0 0.022222222222222223 0.0
0.0 0.02277777777777778 0.0
0.0 0.023333333333333334 0.0
0.0 0.02388888888888889 0.0
0.0 0.024444444444444446 0.0
0.0 0.025 0.0
0.0 0.036111111111111115 0.0
0.0 0.04722222222222222 0.0
0.0 0.058333333333333334 0.0
0.0 0.06944444444444445 0.0
0.0 0.08055555555555556 0.0
0.0 0.09166666666666667 0.0
0.0 0.10277777777777777 0.0
0.0 0.1138888888888889 0.0
0.0 0.125 0.0
0.0 0.12555555555555556 0.0
0.0 0.12611111111111112 0.0
0.0 0.12666666666666668 0.0
0.0 0.1272222222222222 0.0
0.0 0.12777777777777777 0.0
0.0 0.12833333333333333 0.0
0.0 0.1288888888888889 0.0
0.0 0.12944444444444445 0.0
0.0 0.13 0.0
5.555555555555556E-4 0.0 0.0
5.555555555555556E-4 0.0015384615384615385 0.0
5.555555555555556E-4 0.003076923076923077 0.0
5.555555555555556E-4 0.004615384615384615 0.0
5.555555555555556E-4 0.006153846153846154 0.0
5.555555555555556E-4 0.007692307692307693 0.0
5.555555555555556E-4 0.00923076923076923 0.0
5.555555555555556E-4 0.010769230769230769 0.0
5.555555555555556E-4 0.012307692307692308 0.0
5.555555555555556E-4 0.013846153846153847 0.0
5.555555555555556E-4 0.015384615384615385 0.0
5.555555555555556E-4 0.016923076923076923 0.0
5.555555555555556E-4 0.01846153846153846 0.0
5.555555555555556E-4 0.02 0.0
5.555555555555556E-4 0.020555555555555556 0.0
5.555555555555556E-4 0.021111111111111112 0.0
5.555555555555556E-4 0.021666666666666667 0.0
5.555555555555556E-4 0.022222222222222223 0.0
5.555555555555556E-4 0.02277777777777778 0.0
5.555555555555556E-4 0.023333333333333334 0.0
5.555555555555556E-4 0.02388888888888889 0.0
5.555555555555556E-4 0.024444444444444446 0.0
5.555555555555556E-4 0.025 0.0
5.555555555555556E-4 0.036111111111111115 0.0
5.555555555555556E-4 0.04722222222222222 0.0
5.555555555555556E-4 0.058333333333333334 0.0
5.555555555555556E-4 0.06944444444444445 0.0
5.555555555555556E-4 0.08055555555555556 0.0
5.555555555555556E-4 0.09166666666666667 0.0
5.555555555555556E-4 0.10277777777777777 0.0
5.555555555555556E-4 0.1138888888888889 0.0
5.555555555555556E-4 0.125 0.0
5.555555555555556E-4 0.12555555555555556 0.0
5.555555555555556E-4 0.12611111111111112 0.0
5.555555555555556E-4 0.12666666666666668 0.0
5.555555555555556E-4 0.1272222222222222 0.0
5.555555555555556E-4 0.12777777777777777 0.0
5.555555555555556E-4 0.12833333333333333 0.0
5.555555555555556E-4 0.1288888888888889 0.0
5.555555555555556E-4 0.12944444444444445 0.0
5.555555555555556E-4 0.13 0.0
0.0011111111111111111 0.0 0.0
0.0011111111111111111 0.0015384615384615385 0.0
0.0011111111111111111 0.003076923076923077 0.0
0.0011111111111111111 0.004615384615384615 0.0
0.0011111111111111111 0.006153846153846154 0.0
0.0011111111111111111 0.007692307692307693 0.0
0.0011111111111111111 0.00923076923076923 0.0
0.0011111111111111111 0.010769230769230769 0.0
0.0011111111111111111 0.012307692307692308 0.0
0.0011111111111111111 0.013846153846153847 0.0
0.0011111111111111111 0.015384615384615385 0.0
0.0011111111111111111 0.016923076923076923 0.0
0.0011111111111111111 0.01846153846153846 0.0
0.0011111111111111111 0.02 0.0
0.0011111111111111111 0.020555555555555556 0.0
0.0011111111111111111 0.021111111111111112 0.0
0.0011111111111111111 0.021666666666666667 0.0
0.0011111111111111111 0.022222222222222223 0.0
0.0011111111111111111 0.02277777777777778 0.0
0.0011111111111111111 0.023333333333333334 0.0
0.0011111111111111111 0.02388888888888889 0.0
0.0011111111111111111 0.024444444444444446 0.0
0.0011111111111111111 0.025 0.0
0.0011111111111111111 0.036111111111111115 0.0
0.0011111111111111111 0.04722222222222222 0.0
0.0011111111111111111 0.058333333333333334 0.0
0.0011111111111111111 0.06944444444444445 0.0
0.0011111111111111111 0.08055555555555556 0.0
0.0011111111111111111 0.09166666666666667 0.0
0.0011111111111111111 0.10277777777777777 0.0
0.0011111111111111111 0.1138888888888889 0.0
0.0011111111111111111 0.125 0.0
0.0011111111111111111 0.12555555555555556 0.0
0.0011111111111111111 0.12611111111111112 0.0
0.0011111111111111111 0.12666666666666668 0.0
0.0011111111111111111 0.1272222222222222 0.0
0.0011111111111111111 0.12777777777777777 0.0
0.0011111111111111111 0.12833333333333333 0.0
0.0011111111111111111 0.1288888888888889 0.0
0.0011111111111111111 0.12944444444444445 0.0
0.0011111111111111111 0.13 0.0
0.0016666666666666666 0.0 0.0
0.0016666666666666666 0.0015384615384615385 0.0
0.0016666666666666666 0.003076923076923077 0.0
0.0016666666666666666 0.004615384615384615 0.0
0.0016666666666666666 0.006153846153846154 0.0
0.0016666666666666666 0.007692307692307693 0.0
0.0016666666666666666 0.00923076923076923 0.0
0.0016666666666666666 0.010769230769230769 0.0
0.0016666666666666666 0.012307692307692308 0.0
0.0016666666666666666 0.013846153846153847 0.0
0.0016666666666666666 0.015384615384615385 0.0
0.0016666666666666666 0.016923076923076923 0.0
0.0016666666666666666 0.01846153846153846 0.0
0.0016666666666666666 0.02 0.0
0.0016666666666666666 0.020555555555555556 0.0
0.0016666666666666666 0.021111111111111112 0.0
0.0016666666666666666 0.021666666666666667 0.0
0.0016666666666666666 0.022222222222222223 0.0
0.0016666666666666666 0.02277777777777778 0.0
0.0016666666666666666 0.023333333333333334 0.0
0.0016666666666666666 0.02388888888888889 0.0
0.0016666666666666666 0.024444444444444446 0.0
0.0016666666666666666 0.025 0.0
0.0016666666666666666 0.036111111111111115 0.0
0.0016666666666666666 0.04722222222222222 0.0
0.0016666666666666666 0.058333333333333334 0.0
0.0016666666666666666 0.06944444444444445 0.0
0.0016666666666666666 0.08055555555555556 0.0
0.0016666666666666666 0.09166666666666667 0.0
0.0016666666666666666 0.10277777777777777 0.0
0.0016666666666666666 0.1138888888888889 0.0
0.0016666666666666666 0.125 0.0
0.0016666666666666666 0.12555555555555556 0.0
0.0016666666666666666 0.12611111111111112 0.0
0.0016666666666666666 0.12666666666666668 0.0
0.0016666666666666666 0.1272222222222222 0.0
0.0016666666666666666 0.12777777777777777 0.0
0.0016666666666666666 0.12833333333333333 0.0
0.0016666666666666666 0.1288888888888889 0.0
0.0016666666666666666 0.12944444444444445 0.0
0.0016666666666666666 0.13 0.0
0.0022222222222222222 0.0 0.0
0.0022222222222222222 0.0015384615384615385 0.0
0.0022222222222222222 0.003076923076923077 0.0
0.0022222222222222222 0.004615384615384615 0.0
0.0022222222222222222 0.006153846153846154 0.0
0.0022222222222222222 0.007692307692307693 0.0
0.0022222222222222222 0.00923076923076923 0.0
0.0022222222222222222 0.010769230769230769 0.0
0.0022222222222222222 0.012307692307692308 0.0
0.0022222222222222222 0.013846153846153847 0.0
0.0022222222222222222 0.015384615384615385 0.0
0.0022222222222222222 0.016923076923076923 0.0
0.0022222222222222222 0.01846153846153846 0.0
0.0022222222222222222 0.02 0.0
0.0022222222222222222 0.020555555555555556 0.0
0.0022222222222222222 0.021111111111111112 0.0
0.0022222222222222222 0.021666666666666667 0.0
0.0022222222222222222 0.022222222222222223 0.0
0.0022222222222222222 0.02277777777777778 0.0
0.0022222222222222222 0.023333333333333334 0.0
0.0022222222222222222 0.02388888888888889 0.0
0.0022222222222222222 0.024444444444444446 0.0
0.0022222222222222222 0.025 0.0
0.0022222222222222222 0.036111111111111115 0.0
0.0022222222222222222 0.04722222222222222 0.0
0.0022222222222222222 0.058333333333333334 0.0
0.0022222222222222222 0.06944444444444445 0.0
0.0022222222222222222 0.08055555555555556 0.0
0.0022222222222222222 0.09166666666666667 0.0
0.0022222222222222222 0.10277777777777777 0.0
0.0022222222222222222 0.1138888888888889 0.0
0.0022222222222222222 0.125 0.0
0.0022222222222222222 0.12555555555555556 0.0
0.0022222222222222222 0.12611111111111112 0.0
0.0022222222222222222 0.12666666666666668 0.0
0.0022222222222222222 0.1272222222222222 0.0
0.0022222222222222222 0.12777777777777777 0.0
0.0022222222222222222 0.12833333333333333 0.0
0.0022222222222222222 0.1288888888888889 0.0
0.0022222222222222222 0.12944444444444445 0.0
0.0022222222222222222 0.13 0.0
0.002777777777777778 0.0 0.0
0.002777777777777778 0.0015384615384615385 0.0
0.002777777777777778 0.003076923076923077 0.0
0.002777777777777778 0.004615384615384615 0.0
0.002777777777777778 0.006153846153846154 0.0
0.002777777777777778 0.007692307692307693 0.0
0.002777777777777778 0.00923076923076923 0.0
0.002777777777777778 0.010769230769230769 0.0
0.002777777777777778 0.012307692307692308 0.0
0.002777777777777778 0.013846153846153847 0.0
0.002777777777777778 0.015384615384615385 0.0
0.002777777777777778 0.016923076923076923 0.0
0.002777777777777778 0.01846153846153846 0.0
0.002777777777777778 0.02 0.0
0.002777777777777778 0.020555555555555556 0.0
0.002777777777777778 0.021111111111111112 0.0
0.002777777777777778 0.021666666666666667 0.0
0.002777777777777778 0.022222222222222223 0.0
0.002777777777777778 0.02277777777777778 0.0
0.002777777777777778 0.023333333333333334 0.0
0.002777777777777778 0.02388888888888889 0.0
0.002777777777777778 0.024444444444444446 0.0
0.002777777777777778 0.025 0.0
0.002777777777777778 0.036111111111111115 0.0
0.002777777777777778 0.04722222222222222 0.0
0.002777777777777778 0.058333333333333334 0.0
0.002777777777777778 0.06944444444444445 0.0
0.002777777777777778 0.08055555555555556 0.0
0.002777777777777778 0.09166666666666667 0.0
0.002777777777777778 0.10277777777777777 0.0
0.002777777777777778 0.1138888888888889 0.0
0.002777777777777778 0.125 0.0
0.002777777777777778 0.12555555555555556 0.0
0.002777777777777778 0.12611111111111112 0.0
[...]
POINT_DATA 1353
SCALARS Temperatura float 1
LOOKUP_TABLE default
119.63541368489058
119.12481528524299
118.61840432175325
118.11578248938254
117.61656682224594
117.1202778456471
116.62629394516775
116.13379128815416
115.64166112191333
115.14834768062053
114.65167688307976
114.14787542954456
113.63240444421238
113.07814967733373
112.34821584058456
111.66855444432994
111.00455828139462
110.3502995033797
109.7021330830609
109.05774784137478
108.41549277247458
107.7741749187098
107.13299053533332
95.97984969614855
91.93541332742028
90.74468358160925
90.34096241022144
90.20336598918486
90.11646902752597
89.96407889213783
89.4801729986008
88.16528147831387
88.09161993710327
88.01836983378662
87.94559297921757
87.87333370047392
87.8016237339761
87.73048594609743
87.65993671484014
87.58998717044832
87.5206436763171
119.66509831910544
119.15439566567557
118.64785407822215
118.14510772808566
117.64577431158122
117.14937775775317
116.65529954897974
116.16272199294582
115.6705402180334
115.17723376974284
114.6805646432067
114.17727142085332
113.66089162586334
113.11769689624961
112.43162922961223
111.75578761542846
111.09391267567288
110.44056417759404
109.79282459113699
109.14857934139631
108.50625635368746
107.86468512365332
107.22306005746974
96.04537470702898
92.00785847345973
90.81684420754091
90.41340524373703
90.27586395782063
90.18901412951423
90.03659688420159
89.55352814582622
88.23556248092328
88.1617834196613
88.0884277475941
88.01555443282822
87.94320529209718
87.87141021215776
87.80019093608979
87.72956331218572
87.6595383123974
87.59012230023245
119.69487730890081
119.18412997364764
118.67750242795631
118.17468023276014
117.67529062525988
117.17886614796116
116.6847989534554
116.19228648058846
115.70025132037077
115.20721018439032
114.71104039720933
114.20860927077962
113.69412604314276
113.16185972261712
112.49490504257822
111.83246698753788
111.17665899681666
110.52701077590537
109.88171413330467
109.23914605324335
108.59791788057149
107.95690485351057
107.31528168767005
96.08639353612507
92.07816935230058
90.88863142522379
90.48689600355745
90.34979107176572
90.26326624004449
90.11106665408151
89.63152809070911
88.30699444266595
88.23301634487981
88.15949682854172
88.08648559811762
88.0140165126957
87.94211380997683
87.87079599404714
87.80007754875334
87.72996918028458
87.6604773889272
119.7247795955142
119.21401880661412
118.70734811823147
118.20449764668727
117.70511230668953
117.2087383423976
116.71478522875
116.2224760317684
115.73077488184903
115.23826926647449
114.74298817366865
114.24203032158304
113.73104130312507
113.20777418950887
112.554021117343
111.9026100322759
111.25481542444909
110.61070762573141
109.96949134203378
109.32999159571166
108.69099550546939
108.05138657673098
107.41025816761561
96.1023915066419
92.14659908206201
90.95997667343578
90.56146062662337
90.42514072771569
90.33923664346229
90.18746070194753
89.71423091211267
88.37953399941694
88.30528490792246
88.23155320536941
88.15837090177898
88.085757431249
88.01372760429133
87.94229526401679
87.8714735862774
87.80127364654768
87.73170267323144
119.75481970715961
119.24406505429346
118.73738870646537
118.23455596702549
117.73523361345245
117.23898643291399
116.74524738499376
116.25327428434626
115.76208664946573
115.27036926133584
114.77632704573067
114.27744058537043
113.77063167652241
113.25505218013083
112.61192588359123
111.97018306963983
111.33051120047897
110.69298163312725
110.05708408489555
109.42190126600538
108.78628893949617
108.14903345823849
107.50901894762669
96.09251044037262
92.21358102785574
91.03076119584038
90.6371435706926
90.50190005936433
90.41694374299105
90.26573067133042
89.8017321637072
88.4531047922233
88.37853179618857
88.30455862013518
88.23118707225088
88.15841401561418
88.08624162401395
88.01467946138658
87.94374131881435
87.87344063247282
87.8037866824324
119.78500476827168
119.27427037040411
118.76762085702072
118.26484948037877
117.7656465576338
117.26959950293633
116.77617021868791
116.28465910071816
115.7941533837402
115.30345326118136
114.81096774748396
114.31461723172966
113.81226524968893
113.3035805076555
112.66981802171286
112.036978681172
111.4053946386371
110.77502874047323
110.14543016871704
109.51575051320546
108.884788347932
108.25107488819552
107.61306727935096
96.05552095700702
92.27974453057816
91.10080864722944
90.71401084658673
90.58004854721254
90.4964142426597
90.3458054959328
89.89416792324712
88.52759189832865
88.45267669439906
88.3784654636901
88.30490980266367
88.2319736753447
88.1596461808281
88.08793712496112
88.01686631535416
87.94645336975097
87.87671179963456
119.81533731150094
119.30463431266674
118.79804004066061
118.29537080920257
117.79634098124583
117.30056378412895
116.80753465891547
116.31660309779359
115.8269336435341
115.33745477589758
114.84679947459358
114.35331672500483
113.85553011298296
113.35327936114624
112.72823763104057
112.10392005693888
111.48045220957928
110.85771488642575
110.23527464602329
109.61231937962039
108.98753140951949
108.35902147575219
107.72446426722242
95.98977814489113
92.34593881315153
91.16987402110124
90.79215455446955
90.659555934574
90.57768491427325
90.42758861155106
89.99171957149814
88.60283243546735
88.52761924171617
88.45322891357648
88.37952686630037
88.30643476737029
88.23393569369081
88.16205531493404
88.09082889115895
88.02028773635885
87.95045239091797
119.84581657621032
119.33515425578211
118.82864029344744
118.32611093885187
117.82730466068709
117.33186285797942
116.8393181670059
116.34907420598111
115.8603795136128
115.37229906571696
114.88369708083827
114.39331088045556
113.9001325572743
113.40405658586275
112.7874194179342
112.17146401681254
111.55621181287088
110.94152120462938
110.32702245366896
109.71202707283287
109.09534819428012
108.47453973864944
107.84597662213974
95.89315248584116
92.4132677269524
91.23762794919853
90.871699287797
90.7403792826432
90.6608050951366
90.5109539453949
90.09462112020218
88.67859968730158
88.60325133891439
88.52883144510946
88.45507012681458
88.38181611500049
88.30911072954005
88.2370183203541
88.16560152222007
88.09490921516756
88.02497165913371
119.8764392108267
119.3658255199662
118.85941410924936
118.35705924512608
117.85852343241564
117.36347789467119
116.87149515286785
116.3820364133432
115.89443809664172
115.4079050594391
114.92152956085035
114.43439331149631
113.94584129190524
113.45580088789686
112.84742605467461
112.23978870718025
111.63287485349096
111.02657782349317
110.42066086447201
109.81470434292001
109.20797658574922
108.59928756903264
107.98133455298681
95.76292205526099
92.48313981084317
91.30363483726643
90.95281096696219
90.82245893129871
90.74584006299472
90.59574051132746
90.20316935880683
88.75458036362132
88.6793959778155
88.60545086470636
88.53163223985094
88.45815956818792
88.38517439794506
88.31280277551687
88.24114394487388
88.17026822208265
88.1002170800882
119.90719971783544
119.39664155231388
118.8903524315468
118.38820354169113
117.88998133558734
117.39538791350269
116.9040374198338
116.41545056742187
115.9290528888351
115.44418781401222
114.9601655975173
114.47637622921992
113.99245754001853
113.50838365577275
112.90821658264149
112.30889886307317
111.71041924283406
111.11273923350726
110.51579588239396
109.91952274685292
109.32390567634275
108.72910296974126
94.31729757049465
94.31729757049465
94.31729757049465
94.31729757049465
94.31729757049465
94.31729757049465
94.31729757049465
94.31729757049465
94.31729757049465
94.31729757049465
88.75721482661801
88.68338136155475
88.60935793221927
88.5355146545725
88.46212023721593
88.38936833590866
88.31739586752482
88.24629398975397
88.17611466909126
120.50742891335547
119.99854362508272
119.4963534266006
119.00093692647955
118.51242886587082
118.03103303700762
117.5570428613456
117.09087094067303
116.63308886420398
116.18447798385657
115.74608990000979
115.31931359106798
114.90595559847277
114.50837520852338
114.02786166341268
113.55124628780439
113.07916289014211
112.61228663559542
112.15134193725596
111.69710631912393
111.25040578976538
110.81209353121925
94.31729757049465
94.31729757049465
94.31729757049465
94.31729757049465
94.31729757049465
94.31729757049465
94.31729757049465
94.31729757049465
94.31729757049465
94.31729757049465
90.2397969967998
90.12883912359017
90.0239624146353
89.92481581062643
89.83112279505175
89.74266931530865
89.65929506725115
89.58088775130152
89.5073793836209
121.05279594428656
120.54501553147784
120.04523368144841
119.55350377206814
119.06990952994302
118.59456295465642
118.1276000613836
117.6691731795639
117.21943799572793
116.77853291528193
116.34654782920067
115.92347857195816
115.50915910556283
115.10315088563539
114.60518022126833
114.10884543912879
113.61393048533162
113.12019125848022
112.62734769068942
112.13507622972976
111.64300379969254
111.15070537348723
94.31729757049465
94.31729757049465
94.31729757049465
94.31729757049465
94.31729757049465
94.31729757049465
94.31729757049465
94.31729757049465
94.31729757049465
94.31729757049465
90.64679571992626
90.56145154738145
90.4775461218622
90.39526390053292
90.31474930277692
90.23611292198228
90.15943614217397
90.08477436478084
90.01215916071456
121.48392866308916
120.97645591722133
120.4768711026292
119.9851815453987
119.5013939022335
119.02551246370658
118.55753703613999
118.09746071534562
117.64526811793515
117.20093501249528
116.76443079724548
116.33572608999769
115.9148098136354
115.50172528719094
114.99510220507685
114.49041502799918
113.98771412645846
113.48706098160955
112.98853213465831
112.492223374018
111.99825395752318
111.50677037820562
94.31729757049465
94.31729757049465
94.31729757049465
94.31729757049465
94.31729757049465
94.31729757049465
94.31729757049465
94.31729757049465
94.31729757049465
94.31729757049465
90.79660422186237
90.71090753066449
90.62719483725088
90.54540739196675
90.46550044578177
90.38744040229797
90.31120268741287
90.23677023383534
90.16413246204199
121.79701361836915
121.2896174243899
120.78974418964994
120.29739594931604
119.81257208505451
119.33526952314344
118.86548304592378
118.40320572839343
117.94842945799277
117.5011453860453
117.06134397062816
116.62901391658808
116.20413846443577
115.78668549611119
115.2742695516537
114.76365453858047
114.25482242424654
113.747751245317
113.24241355102475
112.73877464972317
112.23679067281977
111.73640654508333
94.31729757049465
94.31729757049465
94.31729757049465
94.31729757049465
94.31729757049465
94.31729757049465
94.31729757049465
94.31729757049465
94.31729757049465
94.31729757049465
90.84224397619761
90.75847762260052
90.6762689957495
90.59563777694862
90.51659827315922
90.43916055778628
90.3633313188266
90.28911446212662
90.21651151589444
122.00735574220444
121.4999990311979
120.99989758932324
120.50705381840561
120.02146772226858
119.54313687569372
119.07205636052329
118.60821864984348
118.1516134269677
117.70222734703103
117.26004379730239
116.82504282256092
116.39720166989032
115.97649710619284
115.45987049637415
114.94502800557694
114.43196886138337
113.92069345766907
113.41120390447507
112.90350467727428
112.39760337797001
111.89351160209837
94.31729757049465
94.31729757049465
94.31729757049465
94.31729757049465
94.31729757049465
94.31729757049465
94.31729757049465
94.31729757049465
94.31729757049465
94.31729757049465
90.8578655865401
90.77424674482822
90.6922176470502
90.6117712461277
90.53290211331327
90.45560600942451
90.37987956939911
90.30572007940836
90.2331253284954
122.12828120716777
121.62094565304726
121.1207082836342
120.62757142142584
120.14153503649072
119.6625967460333
119.1907518214496
118.72599321091683
118.26831158724738
117.81769542955638
117.3741311389231
116.93760315976955
116.50809398853424
116.08558370904016
115.56662157832099
115.04942352483039
114.5339853275239
114.02030232851408
113.5083692396959
112.9981799037475
112.48972699921865
111.98300168312338
94.31729757049465
94.31729757049465
94.31729757049465
94.31729757049465
94.31729757049465
94.31729757049465
94.31729757049465
94.31729757049465
94.31729757049465
94.31729757049465
90.86267487124304
90.77921692948824
90.697311719195
90.61695987490937
90.53816139790833
90.46091581884339
90.38522231552555
90.31107979512304
90.23848694826947
122.16771955228748
121.6603906730929
121.16010832683713
120.66687490133017
120.18069051249209
119.70155301313854
119.22945800337851
118.7643988386861
118.30636662972294
117.855350226502
117.41133618070727
116.97430869116712
116.54424958254995
116.12113850134314
115.6013967963659
115.083413738799
114.56718624560047
114.05271139121099
113.53998651852484
113.02900938002381
112.5197783173086
112.01229248616492
94.31729757049465
94.31729757049465
94.31729757049465
94.31729757049465
94.31729757049465
94.31729757049465
94.31729757049465
94.31729757049465
94.31729757049465
94.31729757049465
90.86380142269954
90.78035423242912
90.69846382880759
90.61812784462641
90.53934420900664
90.46211104904353
90.38642661937128
90.31228925347327
90.23969733191646
122.12828120716847
121.62094565304795
121.12070828363485
120.62757142142642
120.14153503649122
119.66259674603374
119.19075182145
118.72599321091728
118.26831158724788
117.81769542955689
117.37413113892363
116.93760315977013
116.50809398853487
116.08558370904079
115.56662157832166
115.04942352483103
114.53398532752453
114.02030232851463
113.50836923969645
112.99817990374804
112.4897269992192
111.98300168312397
94.31729757049465
94.31729757049465
94.31729757049465
94.31729757049465
94.31729757049465
94.31729757049465
94.31729757049465
94.31729757049465
94.31729757049465
94.31729757049465
90.86267487124383
90.77921692948905
90.69731171919584
90.61695987491022
90.53816139790919
90.4609158188443
90.38522231552649
90.31107979512396
90.23848694827039
122.00735574220549
121.49999903119895
120.9998975893243
120.50705381840667
120.02146772226963
119.54313687569474
119.07205636052424
118.60821864984442
118.15161342696862
117.70222734703195
117.26004379730331
116.82504282256183
116.39720166989126
115.97649710619383
115.45987049637515
114.94502800557792
114.43196886138435
113.92069345767005
113.41120390447604
112.90350467727527
112.39760337797098
111.8935116020993
94.31729757049465
94.31729757049465
94.31729757049465
94.31729757049465
94.31729757049465
94.31729757049465
94.31729757049465
94.31729757049465
94.31729757049465
94.31729757049465
90.8578655865422
90.77424674483038
90.69221764705242
90.61177124612998
90.53290211331552
90.45560600942675
90.37987956940134
90.3057200794106
90.23312532849766
121.79701361836992
121.28961742439064
120.7897441896506
120.29739594931665
119.81257208505512
119.33526952314402
118.86548304592432
118.40320572839391
117.94842945799327
117.50114538604579
117.06134397062876
116.62901391658872
116.20413846443648
115.78668549611194
115.27426955165448
114.76365453858125
114.25482242424731
113.7477512453177
113.24241355102532
112.73877464972364
112.23679067282016
111.73640654508368
94.31729757049465
94.31729757049465
94.31729757049465
94.31729757049465
94.31729757049465
94.31729757049465
94.31729757049465
94.31729757049465
94.31729757049465
94.31729757049465
90.84224397620294
90.75847762260598
90.67626899575505
90.59563777695419
90.51659827316477
90.43916055779177
90.36333131883194
90.28911446213182
90.2165115158996
121.4839286630897
120.9764559172219
120.47687110262981
119.98518154539939
119.50139390223416
119.02551246370722
118.55753703614063
118.09746071534629
117.64526811793584
117.20093501249598
116.76443079724618
116.33572608999837
115.914809813636
115.5017252871915
114.99510220507747
114.49041502799973
113.98771412645903
113.48706098161018
112.98853213465907
112.49222337401882
111.998253957524
111.50677037820643
94.31729757049465
94.31729757049465
94.31729757049465
94.31729757049465
94.31729757049465
94.31729757049465
94.31729757049465
94.31729757049465
94.31729757049465
94.31729757049465
90.79660422186664
90.71090753066885
90.62719483725533
90.54540739197131
90.46550044578643
90.38744040230267
90.31120268741763
90.2367702338402
90.16413246204688
121.05279594428619
120.54501553147747
120.04523368144801
119.5535037720677
119.06990952994256
118.59456295465603
118.12760006138319
117.66917317956347
117.2194379957275
116.77853291528157
116.34654782920045
115.92347857195797
115.50915910556269
115.10315088563526
114.6051802212682
114.1088454391287
113.61393048533152
113.12019125848012
112.62734769068925
112.13507622972953
111.64300379969227
111.15070537348687
94.31729757049465
94.31729757049465
94.31729757049465
94.31729757049465
94.31729757049465
94.31729757049465
94.31729757049465
94.31729757049465
94.31729757049465
94.31729757049465
90.64679571992954
90.56145154738478
90.47754612186554
90.39526390053622
90.31474930278023
90.2361129219856
90.15943614217724
90.08477436478405
90.01215916071779
120.50742891335459
119.99854362508187
119.49635342659975
119.00093692647873
118.51242886586999
118.03103303700685
117.55704286134491
117.09087094067233
116.6330888642033
116.18447798385597
115.74608990000931
115.31931359106763
114.90595559847242
114.50837520852305
114.02786166341242
113.55124628780415
113.07916289014187
112.61228663559517
112.15134193725572
111.69710631912368
111.2504057897651
110.81209353121893
94.31729757049465
94.31729757049465
94.31729757049465
94.31729757049465
94.31729757049465
94.31729757049465
94.31729757049465
94.31729757049465
94.31729757049465
94.31729757049465
90.23979699680199
90.12883912359241
90.02396241463765
89.92481581062884
89.83112279505418
89.74266931531109
89.65929506725361
89.58088775130403
89.5073793836234
119.90719971783427
119.39664155231273
118.89035243154581
118.38820354169029
117.88998133558671
117.39538791350216
116.90403741983332
116.41545056742144
115.92905288883475
115.44418781401178
114.96016559751675
114.47637622921937
113.99245754001807
113.50838365577235
112.90821658264127
112.30889886307315
111.71041924283422
111.11273923350758
110.51579588239439
109.91952274685345
109.32390567634334
108.72910296974185
94.31729757049465
94.31729757049465
94.31729757049465
94.31729757049465
94.31729757049465
94.31729757049465
94.31729757049465
94.31729757049465
94.31729757049465
94.31729757049465
88.75721482662054
88.68338136155734
88.60935793222185
88.53551465457511
88.46212023721863
88.38936833591139
88.31739586752751
88.24629398975658
88.17611466909386
119.87643921082541
119.365825519965
118.85941410924833
118.35705924512526
117.85852343241507
117.3634778946707
116.87149515286735
116.38203641334287
115.89443809664138
115.40790505943849
114.92152956084976
114.4343933114957
113.94584129190469
113.45580088789654
112.84742605467444
112.2397887071803
111.63287485349113
111.02657782349351
110.42066086447252
109.81470434292059
109.20797658574983
108.59928756903325
107.98133455298745
95.7629220552632
92.4831398108429
91.30363483726651
90.9528109669636
90.82245893129918
90.7458400629956
90.59574051132834
90.20316935880541
88.75458036362372
88.67939597781796
88.60545086470891
88.53163223985351
88.4581595681906
88.38517439794765
88.31280277551949
88.24114394487651
88.17026822208526
88.10021708009076
119.84581657620896
119.33515425578096
118.8286402934465
118.32611093885112
117.82730466068648
117.33186285797893
116.83931816700543
116.34907420598063
115.8603795136124
115.3722990657164
114.88369708083768
114.3933108804549
113.90013255727379
113.40405658586239
112.78741941793402
112.17146401681255
111.55621181287107
110.94152120462975
110.32702245366943
109.71202707283344
109.0953481942808
108.4745397386502
107.84597662214053
95.89315248584344
92.41326772695223
91.23762794919874
90.87169928779855
90.74037928264372
90.66080509513753
90.51095394539581
90.0946211202008
88.67859968730401
88.60325133891692
88.52883144511205
88.45507012681712
88.38181611500302
88.30911072954257
88.23701832035658
88.16560152222256
88.09490921517006
88.02497165913626
119.81533731149958
119.30463431266556
118.79804004065974
118.29537080920178
117.79634098124521
117.30056378412843
116.80753465891497
116.31660309779309
115.8269336435336
115.33745477589703
114.84679947459291
114.35331672500439
113.85553011298244
113.35327936114587
112.72823763104046
112.10392005693893
111.48045220957948