# vtk DataFile Version 2.0
Niestacjonarne zagadnienie cieplne - ogrzewanie wody w garnku stalowym
ASCII
DATASET UNSTRUCTURED_GRID
POINTS 1353 float
0.0 0.0 0.0
0.0 0.0015384615384615385 0.0
0.0 0.003076923076923077 0.0
0.0 0.004615384615384615 0.0
0.0 0.006153846153846154 0.0
0.0 0.007692307692307693 0.0
0.0 0.00923076923076923 0.0
0.0 0.010769230769230769 0.0
0.0 0.012307692307692308 0.0
0.0 0.013846153846153847 0.0
0.0 0.015384615384615385 0.0
0.0 0.016923076923076923 0.0
0.0 0.01846153846153846 0.0
0.0 0.02 0.0
0.0 0.020555555555555556 0.0
0.0 0.021111111111111112 0.0
0.0 0.021666666666666667 0.0
0.0 0.022222222222222223 0.0
0.0 0.02277777777777778 0.0
0.0 0.023333333333333334 0.0
0.0 0.02388888888888889 0.0
0.0 0.024444444444444446 0.0
0.0 0.025 0.0
0.0 0.036111111111111115 0.0
0.0 0.04722222222222222 0.0
0.0 0.058333333333333334 0.0
0.0 0.06944444444444445 0.0
0.0 0.08055555555555556 0.0
0.0 0.09166666666666667 0.0
0.0 0.10277777777777777 0.0
0.0 0.1138888888888889 0.0
0.0 0.125 0.0
0.0 0.12555555555555556 0.0
0.0 0.12611111111111112 0.0
0.0 0.12666666666666668 0.0
0.0 0.1272222222222222 0.0
0.0 0.12777777777777777 0.0
0.0 0.12833333333333333 0.0
0.0 0.1288888888888889 0.0
0.0 0.12944444444444445 0.0
0.0 0.13 0.0
5.555555555555556E-4 0.0 0.0
5.555555555555556E-4 0.0015384615384615385 0.0
5.555555555555556E-4 0.003076923076923077 0.0
5.555555555555556E-4 0.004615384615384615 0.0
5.555555555555556E-4 0.006153846153846154 0.0
5.555555555555556E-4 0.007692307692307693 0.0
5.555555555555556E-4 0.00923076923076923 0.0
5.555555555555556E-4 0.010769230769230769 0.0
5.555555555555556E-4 0.012307692307692308 0.0
5.555555555555556E-4 0.013846153846153847 0.0
5.555555555555556E-4 0.015384615384615385 0.0
5.555555555555556E-4 0.016923076923076923 0.0
5.555555555555556E-4 0.01846153846153846 0.0
5.555555555555556E-4 0.02 0.0
5.555555555555556E-4 0.020555555555555556 0.0
5.555555555555556E-4 0.021111111111111112 0.0
5.555555555555556E-4 0.021666666666666667 0.0
5.555555555555556E-4 0.022222222222222223 0.0
5.555555555555556E-4 0.02277777777777778 0.0
5.555555555555556E-4 0.023333333333333334 0.0
5.555555555555556E-4 0.02388888888888889 0.0
5.555555555555556E-4 0.024444444444444446 0.0
5.555555555555556E-4 0.025 0.0
5.555555555555556E-4 0.036111111111111115 0.0
5.555555555555556E-4 0.04722222222222222 0.0
5.555555555555556E-4 0.058333333333333334 0.0
5.555555555555556E-4 0.06944444444444445 0.0
5.555555555555556E-4 0.08055555555555556 0.0
5.555555555555556E-4 0.09166666666666667 0.0
5.555555555555556E-4 0.10277777777777777 0.0
5.555555555555556E-4 0.1138888888888889 0.0
5.555555555555556E-4 0.125 0.0
5.555555555555556E-4 0.12555555555555556 0.0
5.555555555555556E-4 0.12611111111111112 0.0
5.555555555555556E-4 0.12666666666666668 0.0
5.555555555555556E-4 0.1272222222222222 0.0
5.555555555555556E-4 0.12777777777777777 0.0
5.555555555555556E-4 0.12833333333333333 0.0
5.555555555555556E-4 0.1288888888888889 0.0
5.555555555555556E-4 0.12944444444444445 0.0
5.555555555555556E-4 0.13 0.0
0.0011111111111111111 0.0 0.0
0.0011111111111111111 0.0015384615384615385 0.0
0.0011111111111111111 0.003076923076923077 0.0
0.0011111111111111111 0.004615384615384615 0.0
0.0011111111111111111 0.006153846153846154 0.0
0.0011111111111111111 0.007692307692307693 0.0
0.0011111111111111111 0.00923076923076923 0.0
0.0011111111111111111 0.010769230769230769 0.0
0.0011111111111111111 0.012307692307692308 0.0
0.0011111111111111111 0.013846153846153847 0.0
0.0011111111111111111 0.015384615384615385 0.0
0.0011111111111111111 0.016923076923076923 0.0
0.0011111111111111111 0.01846153846153846 0.0
0.0011111111111111111 0.02 0.0
0.0011111111111111111 0.020555555555555556 0.0
0.0011111111111111111 0.021111111111111112 0.0
0.0011111111111111111 0.021666666666666667 0.0
0.0011111111111111111 0.022222222222222223 0.0
0.0011111111111111111 0.02277777777777778 0.0
0.0011111111111111111 0.023333333333333334 0.0
0.0011111111111111111 0.02388888888888889 0.0
0.0011111111111111111 0.024444444444444446 0.0
0.0011111111111111111 0.025 0.0
0.0011111111111111111 0.036111111111111115 0.0
0.0011111111111111111 0.04722222222222222 0.0
0.0011111111111111111 0.058333333333333334 0.0
0.0011111111111111111 0.06944444444444445 0.0
0.0011111111111111111 0.08055555555555556 0.0
0.0011111111111111111 0.09166666666666667 0.0
0.0011111111111111111 0.10277777777777777 0.0
0.0011111111111111111 0.1138888888888889 0.0
0.0011111111111111111 0.125 0.0
0.0011111111111111111 0.12555555555555556 0.0
0.0011111111111111111 0.12611111111111112 0.0
0.0011111111111111111 0.12666666666666668 0.0
0.0011111111111111111 0.1272222222222222 0.0
0.0011111111111111111 0.12777777777777777 0.0
0.0011111111111111111 0.12833333333333333 0.0
0.0011111111111111111 0.1288888888888889 0.0
0.0011111111111111111 0.12944444444444445 0.0
0.0011111111111111111 0.13 0.0
0.0016666666666666666 0.0 0.0
0.0016666666666666666 0.0015384615384615385 0.0
0.0016666666666666666 0.003076923076923077 0.0
0.0016666666666666666 0.004615384615384615 0.0
0.0016666666666666666 0.006153846153846154 0.0
0.0016666666666666666 0.007692307692307693 0.0
0.0016666666666666666 0.00923076923076923 0.0
0.0016666666666666666 0.010769230769230769 0.0
0.0016666666666666666 0.012307692307692308 0.0
0.0016666666666666666 0.013846153846153847 0.0
0.0016666666666666666 0.015384615384615385 0.0
0.0016666666666666666 0.016923076923076923 0.0
0.0016666666666666666 0.01846153846153846 0.0
0.0016666666666666666 0.02 0.0
0.0016666666666666666 0.020555555555555556 0.0
0.0016666666666666666 0.021111111111111112 0.0
0.0016666666666666666 0.021666666666666667 0.0
0.0016666666666666666 0.022222222222222223 0.0
0.0016666666666666666 0.02277777777777778 0.0
0.0016666666666666666 0.023333333333333334 0.0
0.0016666666666666666 0.02388888888888889 0.0
0.0016666666666666666 0.024444444444444446 0.0
0.0016666666666666666 0.025 0.0
0.0016666666666666666 0.036111111111111115 0.0
0.0016666666666666666 0.04722222222222222 0.0
0.0016666666666666666 0.058333333333333334 0.0
0.0016666666666666666 0.06944444444444445 0.0
0.0016666666666666666 0.08055555555555556 0.0
0.0016666666666666666 0.09166666666666667 0.0
0.0016666666666666666 0.10277777777777777 0.0
0.0016666666666666666 0.1138888888888889 0.0
0.0016666666666666666 0.125 0.0
0.0016666666666666666 0.12555555555555556 0.0
0.0016666666666666666 0.12611111111111112 0.0
0.0016666666666666666 0.12666666666666668 0.0
0.0016666666666666666 0.1272222222222222 0.0
0.0016666666666666666 0.12777777777777777 0.0
0.0016666666666666666 0.12833333333333333 0.0
0.0016666666666666666 0.1288888888888889 0.0
0.0016666666666666666 0.12944444444444445 0.0
0.0016666666666666666 0.13 0.0
0.0022222222222222222 0.0 0.0
0.0022222222222222222 0.0015384615384615385 0.0
0.0022222222222222222 0.003076923076923077 0.0
0.0022222222222222222 0.004615384615384615 0.0
0.0022222222222222222 0.006153846153846154 0.0
0.0022222222222222222 0.007692307692307693 0.0
0.0022222222222222222 0.00923076923076923 0.0
0.0022222222222222222 0.010769230769230769 0.0
0.0022222222222222222 0.012307692307692308 0.0
0.0022222222222222222 0.013846153846153847 0.0
0.0022222222222222222 0.015384615384615385 0.0
0.0022222222222222222 0.016923076923076923 0.0
0.0022222222222222222 0.01846153846153846 0.0
0.0022222222222222222 0.02 0.0
0.0022222222222222222 0.020555555555555556 0.0
0.0022222222222222222 0.021111111111111112 0.0
0.0022222222222222222 0.021666666666666667 0.0
0.0022222222222222222 0.022222222222222223 0.0
0.0022222222222222222 0.02277777777777778 0.0
0.0022222222222222222 0.023333333333333334 0.0
0.0022222222222222222 0.02388888888888889 0.0
0.0022222222222222222 0.024444444444444446 0.0
0.0022222222222222222 0.025 0.0
0.0022222222222222222 0.036111111111111115 0.0
0.0022222222222222222 0.04722222222222222 0.0
0.0022222222222222222 0.058333333333333334 0.0
0.0022222222222222222 0.06944444444444445 0.0
0.0022222222222222222 0.08055555555555556 0.0
0.0022222222222222222 0.09166666666666667 0.0
0.0022222222222222222 0.10277777777777777 0.0
0.0022222222222222222 0.1138888888888889 0.0
0.0022222222222222222 0.125 0.0
0.0022222222222222222 0.12555555555555556 0.0
0.0022222222222222222 0.12611111111111112 0.0
0.0022222222222222222 0.12666666666666668 0.0
0.0022222222222222222 0.1272222222222222 0.0
0.0022222222222222222 0.12777777777777777 0.0
0.0022222222222222222 0.12833333333333333 0.0
0.0022222222222222222 0.1288888888888889 0.0
0.0022222222222222222 0.12944444444444445 0.0
0.0022222222222222222 0.13 0.0
0.002777777777777778 0.0 0.0
0.002777777777777778 0.0015384615384615385 0.0
0.002777777777777778 0.003076923076923077 0.0
0.002777777777777778 0.004615384615384615 0.0
0.002777777777777778 0.006153846153846154 0.0
0.002777777777777778 0.007692307692307693 0.0
0.002777777777777778 0.00923076923076923 0.0
0.002777777777777778 0.010769230769230769 0.0
0.002777777777777778 0.012307692307692308 0.0
0.002777777777777778 0.013846153846153847 0.0
0.002777777777777778 0.015384615384615385 0.0
0.002777777777777778 0.016923076923076923 0.0
0.002777777777777778 0.01846153846153846 0.0
0.002777777777777778 0.02 0.0
0.002777777777777778 0.020555555555555556 0.0
0.002777777777777778 0.021111111111111112 0.0
0.002777777777777778 0.021666666666666667 0.0
0.002777777777777778 0.022222222222222223 0.0
0.002777777777777778 0.02277777777777778 0.0
0.002777777777777778 0.023333333333333334 0.0
0.002777777777777778 0.02388888888888889 0.0
0.002777777777777778 0.024444444444444446 0.0
0.002777777777777778 0.025 0.0
0.002777777777777778 0.036111111111111115 0.0
0.002777777777777778 0.04722222222222222 0.0
0.002777777777777778 0.058333333333333334 0.0
0.002777777777777778 0.06944444444444445 0.0
0.002777777777777778 0.08055555555555556 0.0
0.002777777777777778 0.09166666666666667 0.0
0.002777777777777778 0.10277777777777777 0.0
0.002777777777777778 0.1138888888888889 0.0
0.002777777777777778 0.125 0.0
0.002777777777777778 0.12555555555555556 0.0
0.002777777777777778 0.12611111111111112 0.0
[...]
POINT_DATA 1353
SCALARS Temperatura float 1
LOOKUP_TABLE default
87.74770111214019
87.21153615834034
86.68099707941896
86.1557132364074
85.6353494166826
85.11949817382985
84.60764126767619
84.09910196719251
83.59298189334982
83.08804345709439
82.58258253415254
82.07376591826481
81.5581511168163
81.01739629092998
80.31897384020058
79.65379201686346
78.99897176874659
78.35044205588538
77.70563541579868
77.06287341903973
76.42093765679152
75.77895476877896
75.13637262983113
63.90049321973573
59.82106156300562
58.62139594668846
58.21614730650443
58.0832191981443
58.01429544430405
57.91639432713535
57.61703296926991
56.8110858774804
56.76752671350484
56.72450655171644
56.682103652504665
56.640383938900676
56.599401964975314
56.55920166923111
56.51981684188355
56.4812713388377
56.44357913275814
87.76789671731012
87.23161934697045
86.70094075653664
86.1755226524813
85.65503024172307
85.13905904168135
84.62709327420448
84.11846076826177
83.6122663594546
83.10729648445071
82.60180638259088
82.09329962741505
81.57707605347238
81.04355330443879
80.37376324816802
79.71095512044442
79.05739383177182
78.40932644513616
77.76465851358947
77.12183401894761
76.47967721779197
75.8373182954689
75.19419191550868
63.93327384247952
59.86087094124944
58.66090940408697
58.25594602599242
58.123070817582565
58.054182449210856
57.95626243576785
57.65744357968229
56.849453504316216
56.80580321521534
56.762699184311465
56.72021920372649
56.6784287450296
56.6373820301653
56.597122816782395
56.55768484025103
56.51909197338263
56.48135822221809
87.78818954435164
87.25185822756487
86.72108139440975
86.1955717384712
85.67500324365372
85.15897875574322
84.64699095094305
84.13837923073551
83.6322685324031
83.12747244950326
82.62232558198512
82.11442074321504
81.59950384733763
81.07321740820605
80.41601847069586
79.76205445724128
79.11252592880128
78.46693391935642
77.82390020558213
77.18217213098534
76.54066681918856
75.8985098145213
75.25508485098685
63.94166220870958
59.89894872427615
58.70044704946946
58.29719963531551
58.16474482965553
58.09610822575507
57.99832337610422
57.70176278173446
56.889271844429814
56.84543767932912
56.80217056932063
56.759546567071794
56.71762954821552
56.67647260112862
56.63611888809325
56.59660197552159
56.5579457993344
56.52016447714178
87.80860896181194
87.2722538409354
86.74141823476701
86.21585872601109
85.69526572176157
85.1792536400774
84.66732893228475
84.15885054841165
83.65297415420999
83.1485643970337
82.64406155720637
82.1372185519753
81.62473143344546
81.10452240545177
80.45621645646344
79.8097241818906
79.16569567318236
78.52397990133251
77.88384620009592
77.24430543172154
76.60434338889243
75.96302903834513
75.3196219665068
63.925145548337525
59.93554973896572
58.73994031383131
58.33993447346718
58.208235973264586
58.14008167830507
58.042560447860524
57.750028335023586
56.93052032760471
56.886411115334425
56.84290364736387
56.80007039054933
56.75797214686903
56.71666002039112
56.676176317742346
56.636554552235566
56.59781896771549
56.55998399373352
87.82917020505543
87.29280981073352
86.76194965267733
86.2363805878516
85.71581317191755
85.19987747268688
84.6880986267755
84.17986216259439
83.67436490045486
83.17054172017356
82.66695697178969
82.16162563865447
81.65209389750575
81.1372121918104
80.49628564962865
79.85655916281962
79.21829901936576
78.58134947644336
77.94514899939077
77.3088395352321
76.67138616617946
76.03169832785603
75.38878142143744
63.88286812012974
59.97111011078286
58.77927010322192
58.38419538397194
58.2535334251794
58.186116808000975
58.08894361048452
57.80230146359239
56.973162502663236
56.92869058413906
56.884869456335906
56.84176498556476
56.79943282983115
56.75792128549113
56.71727198921125
56.677519021344054
56.63868755257957
56.60079271742488
87.84988137897423
87.3135288078466
86.7826734447331
86.25713295788287
85.73663931440795
85.22084164004549
84.70928812886626
84.20139700501541
83.69641560138085
83.19336261928092
82.690947292565
82.18748795960691
81.68116769393605
81.17120191240254
80.53699697824233
79.90371744281316
79.27140305304415
78.63982814348086
78.00845958161733
77.37644852598636
76.74264297959293
76.1056474144148
75.46399998878198
63.81360267470705
60.00626323303035
58.81825933408035
58.43004873203843
58.30061952688642
58.23423356454853
58.13742839212967
57.85866832527249
57.017144104957495
56.972228817025204
56.9280280458105
56.88459590230216
56.841979775264655
56.80022488268939
56.7593734729226
56.71946186640365
56.68051726233092
56.64255610287721
87.87074626088602
87.33441168058022
86.80358651582634
86.27811016005218
85.75773613888882
85.24213525006867
84.73088246314735
84.22343387127552
83.71909479567223
83.21697779834503
82.7159522310972
82.21463567189763
81.71166948074915
81.20642078707054
80.57867747543592
79.9517698772546
79.32561706605655
78.69995309450559
78.07426392219618
77.44771432910598
76.81900247884825
76.18627734746025
75.54726147739682
63.71570520982372
60.04186394904991
58.856661776798454
58.47758691162894
58.34946787980893
58.28445910953179
58.187954286574744
57.919242215199354
57.062389940858964
57.016963815109555
56.97233101998898
56.92852323899057
56.885575818201005
56.843531673312334
56.80243904813436
56.762339212245244
56.72326287750059
56.68522850650471
87.89176558767902
87.3554573553173
86.82468462253351
86.2993052133028
85.77909397368856
85.26374527652924
84.75286386858387
84.24594782072185
83.74236591047038
83.24133140521894
82.74188055799303
82.2429067966988
81.74338959247716
81.24278281027114
80.6214409231541
80.00096080313061
79.38121746581416
78.76195931408526
78.14274939544329
77.52287275772213
76.90114939737013
76.27514218645118
75.6412487184702
63.58704503876946
60.07902357919274
58.89414626631404
58.52693469821011
58.40004066266585
58.3368295748693
58.240442541407255
57.98416670520709
57.10879901883402
57.0628191369223
57.017724887090935
56.97351333280605
56.93018068703656
56.887795104322095
56.84641708707421
56.80609595259085
56.76686731302493
56.728752239878986
87.91293774476325
87.3766629505613
86.8459622475378
86.32070983353903
85.80070157203973
85.28565673101465
84.77521209830802
84.26891070427854
83.76618829637194
83.26636237136346
82.76863577550243
82.27215159295542
81.77615592782739
81.28018322375011
80.66527604781439
80.05133109026566
79.43823202124912
78.82579280789689
78.21372590715846
77.60159104425409
76.98866447735121
76.37381035417746
75.7496039703104
63.42489659211467
60.119160163453756
58.9302747721281
58.57825799251883
58.45228497189736
58.391392362734095
58.29479347786567
58.05361897369229
57.156240957334376
57.10963362031063
57.06422972463742
57.0195397422294
56.9757506807544
56.93295957744741
56.891244397070615
56.85066425665553
56.81126027538546
56.77305628384272
87.93425919587835
87.39802394194683
86.86741257121753
86.34231445294377
85.82254621183006
85.3078528523795
84.79790474247189
84.29229173611242
83.79051819498596
83.29200611878248
82.79611988982217
82.30223069704053
81.8098149475075
81.31850113756663
80.7100942602966
80.1027918176596
79.49651420452521
78.89116860352067
78.2866565956128
77.68289889150499
77.0798941981513
76.47784137215662
60.9746104575672
60.9746104575672
60.9746104575672
60.9746104575672
60.9746104575672
60.9746104575672
60.9746104575672
60.9746104575672
60.9746104575672
60.9746104575672
57.15792634390782
57.11186351229549
57.066577254393984
57.02223257188381
56.97895646772606
56.936843401203475
56.8959615083648
56.85635662163421
56.81805478276402
88.35866343737416
87.82373762356251
87.29641402856116
86.77675717337485
86.26487624102491
85.76093551658654
85.26517129035643
84.77791641886233
84.29963388535313
83.8309606478868
83.37276220925207
82.92619772909818
82.49280237737385
82.0746172630949
81.56807788155807
81.06546911060838
80.5673449361993
80.07429339202405
79.58694227687481
79.10596091709411
78.63205335395467
78.16593482477593
60.9746104575672
60.9746104575672
60.9746104575672
60.9746104575672
60.9746104575672
60.9746104575672
60.9746104575672
60.9746104575672
60.9746104575672
60.9746104575672
58.077596564602125
58.00659941379828
57.940407740146554
57.8788102103221
57.821636272135464
57.76875177060466
57.72005501626958
57.675474018629835
57.634964638644114
88.75261165925178
88.21857567028697
87.69326683571747
87.17673105521145
86.6690394837719
86.17028700060708
85.68058892285138
85.20007491450511
84.72887853566189
84.26712023693905
83.81488092773152
83.37216219208808
82.93882566779152
82.51449485158572
81.99443735433049
81.47637867127372
80.96013239276773
80.44548830791385
79.93220583530383
79.4200079480283
78.90857674172453
78.39755279311973
60.9746104575672
60.9746104575672
60.9746104575672
60.9746104575672
60.9746104575672
60.9746104575672
60.9746104575672
60.9746104575672
60.9746104575672
60.9746104575672
58.326659949601535
58.271902960978714
58.21902900205833
58.16815138094796
58.119359702500574
58.07272289186896
58.02829168136175
57.986100419885055
57.94616830806475
89.06586578103905
88.53207520075088
88.00697375460351
87.49056968105863
86.98287090907837
86.48388362676206
85.99361048456849
85.51204868189498
85.03918840455373
84.57501242653265
84.1194981886801
83.67262448625907
83.23438674536702
82.80482893839917
82.27846161709907
81.75436781222541
81.2325927146277
80.71319103938173
80.19623037248466
79.68179467862781
79.16998773315845
78.6609359657188
60.9746104575672
60.9746104575672
60.9746104575672
60.9746104575672
60.9746104575672
60.9746104575672
60.9746104575672
60.9746104575672
60.9746104575672
60.9746104575672
58.418636787472835
58.363538669997055
58.31068245084372
58.26003027210858
58.211552751531386
58.16522742666953
58.12103752131478
58.07897104516612
58.039020179444016
89.29327729859871
88.7595442605704
88.23423891142787
87.71736502760496
87.2089243776892
86.70891688966191
86.21734091643475
85.73419361449368
85.25947140506003
84.79317038927094
84.33528641096076
83.88581412329445
83.44474366216862
83.01205189275467
82.48150850651437
81.95312840259967
81.42689690334028
80.90279594379203
80.38080274058721
79.86088830361837
79.34301582013804
78.8271390134275
60.9746104575672
60.9746104575672
60.9746104575672
60.9746104575672
60.9746104575672
60.9746104575672
60.9746104575672
60.9746104575672
60.9746104575672
60.9746104575672
58.446418998430836
58.39252908574327
58.340612956785534
58.290682069475345
58.24274456560241
58.196805927484675
58.15286948582204
58.110936787646814
58.07100784572319
89.44585400257034
88.91214982422433
88.38667961137661
87.86944743886222
87.36045556431976
86.85970440219322
86.36719246934842
85.88291628480204
85.40687021052734
84.9390462388484
84.47943377703403
84.02801958354718
83.58478826589526
83.14972433834669
82.61611031439364
82.08465042623968
81.55534502236428
81.02819545840919
80.50320456971794
79.98037722619337
79.4597209752371
78.9412467607402
60.9746104575672
60.9746104575672
60.9746104575672
60.9746104575672
60.9746104575672
60.9746104575672
60.9746104575672
60.9746104575672
60.9746104575672
60.9746104575672
58.45592268293454
58.40211442766237
58.350301959065014
58.30047987956359
58.25264378358586
58.206790003409985
58.162915416708486
58.12101730863082
58.08109327923113
89.53347614672906
88.99978729989341
88.47421858895791
87.95677400315746
87.44745572951146
86.94626415145267
86.45319785342654
85.96825363861322
85.49142656857337
85.02271003263954
84.56209584687454
84.10957435539957
83.66513442645123
83.22876302907224
82.6934582371615
82.16029300159315
81.62926455694978
81.10036975627342
80.57360490399599
80.04896555044715
79.52644624050039
79.00604021287073
60.9746104575672
60.9746104575672
60.9746104575672
60.9746104575672
60.9746104575672
60.9746104575672
60.9746104575672
60.9746104575672
60.9746104575672
60.9746104575672
58.45883134183787
58.405122469899375
58.35338621041264
58.303622041075435
58.2558290318486
58.21000594323387
58.166151299057596
58.12426343785207
58.0843405469187
89.56203661256983
89.02835257608535
88.50275122358529
87.98523659281011
87.47581097967611
86.97447494508852
86.48122732279306
85.99606522478126
85.5189840389431
85.04997741231068
84.5890372146024
84.13615348762929
83.69131442657255
83.25450655416407
82.71863527383708
82.18489982456336
81.65329842959798
81.12382944697157
80.59649146539662
80.07128342575668
79.54820477455407
79.02725565433636
60.9746104575672
60.9746104575672
60.9746104575672
60.9746104575672
60.9746104575672
60.9746104575672
60.9746104575672
60.9746104575672
60.9746104575672
60.9746104575672
58.459512348302894
58.405809343594285
58.35408167688285
58.30432692145101
58.2565428236763
58.210727243043294
58.16687810836739
58.124993387234404
58.08507106594389
89.53347614672954
88.99978729989391
88.4742185889584
87.95677400315793
87.44745572951186
86.94626415145301
86.4531978534269
85.9682536386136
85.49142656857376
85.02271003263994
84.56209584687494
84.1095743554
83.66513442645169
83.2287630290727
82.69345823716196
82.1602930015936
81.62926455695023
81.10036975627382
80.57360490399637
80.04896555044752
79.52644624050077
79.00604021287116
60.9746104575672
60.9746104575672
60.9746104575672
60.9746104575672
60.9746104575672
60.9746104575672
60.9746104575672
60.9746104575672
60.9746104575672
60.9746104575672
58.45883134183836
58.405122469899894
58.353386210413156
58.303622041075954
58.25582903184911
58.2100059432344
58.16615129905813
58.1242634378526
58.08434054691923
89.44585400257115
88.91214982422518
88.38667961137745
87.86944743886305
87.3604555643206
86.85970440219401
86.36719246934916
85.88291628480273
85.406870210528
84.93904623884906
84.47943377703466
84.02801958354783
83.58478826589597
83.14972433834744
82.61611031439439
82.08465042624039
81.55534502236499
81.02819545840988
80.50320456971862
79.98037722619408
79.45972097523781
78.94124676074085
60.9746104575672
60.9746104575672
60.9746104575672
60.9746104575672
60.9746104575672
60.9746104575672
60.9746104575672
60.9746104575672
60.9746104575672
60.9746104575672
58.45592268293589
58.402114427663726
58.350301959066414
58.30047987956504
58.25264378358732
58.20679000341144
58.16291541670996
58.121017308632304
58.08109327923261
89.29327729859925
88.75954426057089
88.23423891142833
87.71736502760538
87.20892437768961
86.70891688966232
86.21734091643516
85.73419361449406
85.2594714050604
84.7931703892713
84.33528641096117
83.88581412329489
83.44474366216909
83.01205189275512
82.48150850651486
81.95312840260016
81.42689690334075
80.90279594379246
80.38080274058754
79.86088830361861
79.34301582013823
78.82713901342768
60.9746104575672
60.9746104575672
60.9746104575672
60.9746104575672
60.9746104575672
60.9746104575672
60.9746104575672
60.9746104575672
60.9746104575672
60.9746104575672
58.446418998434226
58.39252908574675
58.340612956789066
58.290682069478876
58.24274456560592
58.19680592748813
58.15286948582542
58.11093678765009
58.07100784572644
89.0658657810394
88.53207520075127
88.00697375460393
87.49056968105911
86.98287090907884
86.48388362676253
85.99361048456896
85.51204868189545
85.03918840455422
84.57501242653315
84.11949818868055
83.6726244862595
83.23438674536742
82.8048289383996
82.27846161709948
81.75436781222575
81.23259271462805
80.71319103938211
80.19623037248513
79.68179467862832
79.16998773315898
78.66093596571929
60.9746104575672
60.9746104575672
60.9746104575672
60.9746104575672
60.9746104575672
60.9746104575672
60.9746104575672
60.9746104575672
60.9746104575672
60.9746104575672
58.418636787475556
58.36353866999983
58.31068245084656
58.26003027211149
58.21155275153435
58.16522742667254
58.12103752131784
58.07897104516925
58.03902017944715
88.75261165925147
88.21857567028665
87.69326683571711
87.17673105521105
86.66903948377148
86.17028700060672
85.68058892285106
85.20007491450477
84.72887853566155
84.26712023693875
83.8148809277313
83.3721621920879
82.93882566779138
82.51449485158558
81.99443735433036
81.47637867127365
80.96013239276765
80.44548830791379
79.93220583530373
79.42000794802819
78.90857674172439
78.39755279311954
60.9746104575672
60.9746104575672
60.9746104575672
60.9746104575672
60.9746104575672
60.9746104575672
60.9746104575672
60.9746104575672
60.9746104575672
60.9746104575672
58.32665994960359
58.27190296098081
58.219029002060424
58.16815138095004
58.119359702502656
58.07272289187104
58.02829168136378
57.98610041988704
57.946168308066724
88.35866343737347
87.82373762356183
87.29641402856048
86.77675717337416
86.26487624102421
85.76093551658586
85.2651712903558
84.7779164188617
84.29963388535256
83.83096064788627
83.37276220925162
82.92619772909782
82.4928023773735
82.07461726309458
81.56807788155781
81.06546911060815
80.5673449361991
80.07429339202383
79.5869422768746
79.10596091709387
78.6320533539544
78.16593482477566
60.9746104575672
60.9746104575672
60.9746104575672
60.9746104575672
60.9746104575672
60.9746104575672
60.9746104575672
60.9746104575672
60.9746104575672
60.9746104575672
58.07759656460353
58.0065994137997
57.94040774014802
57.87881021032361
57.82163627213698
57.76875177060619
57.72005501627113
57.67547401863143
57.634964638645705
87.9342591958774
87.39802394194588
86.86741257121666
86.34231445294304
85.8225462118295
85.30785285237903
84.79790474247152
84.29229173611208
83.79051819498558
83.29200611878213
82.79611988982174
82.30223069704006
81.80981494750714
81.31850113756632
80.71009426029639
80.10279181765951
79.4965142045252
78.8911686035208
78.286656595613
77.68289889150526
77.07989419815164
76.47784137215697
60.9746104575672
60.9746104575672
60.9746104575672
60.9746104575672
60.9746104575672
60.9746104575672
60.9746104575672
60.9746104575672
60.9746104575672
60.9746104575672
57.15792634390944
57.11186351229713
57.06657725439564
57.02223257188549
56.978956467727784
56.9368434012052
56.89596150836649
56.85635662163584
56.81805478276562
87.91293774476223
87.37666295056032
86.84596224753695
86.32070983353836
85.80070157203917
85.2856567310142
84.77521209830765
84.26891070427816
83.76618829637157
83.26636237136303
82.768635775502
82.27215159295497
81.77615592782695
81.28018322374984
80.66527604781419
80.05133109026559
79.4382320212492
78.825792807897
78.2137259071587
77.60159104425442
76.98866447735149
76.37381035417785
75.74960397031077
63.42489659211636
60.11916016345359
58.93027477212796
58.578257992519845
58.45228497189776
58.39139236273466
58.29479347786628
58.053618973691485
57.15624095733594
57.10963362031223
57.06422972463905
57.01953974223104
56.97575068075607
56.93295957744907
56.89124439707227
56.85066425665716
56.8112602753871
56.77305628384436
87.89176558767801
87.3554573553163
86.82468462253269
86.29930521330209
85.77909397368805
85.26374527652878
84.75286386858347
84.24594782072144
83.74236591047003
83.24133140521852
82.7418805579926
82.24290679669835
81.74338959247677
81.24278281027085
80.62144092315394
80.00096080313052
79.3812174658142
78.76195931408536
78.14274939544354
77.52287275772247
76.90114939737052
76.27514218645157
75.64124871847062
63.58704503877124
60.07902357919264
58.89414626631401
58.526934698211114
58.40004066266629
58.33682957486987
58.240442541407916
57.98416670520626
57.10879901883558
57.0628191369239
57.01772488709257
56.97351333280765
56.93018068703817
56.88779510432369
56.846417087075814
56.80609595259244
56.766867313026545
56.728752239880556
87.87074626088501
87.33441168057925
86.8035865158255
86.27811016005147
85.75773613888826
85.24213525006817
84.7308824631469
84.22343387127505
83.71909479567184
83.21697779834462
82.71595223109675
82.21463567189726
81.71166948074872
81.2064207870703
80.5786774754358
79.95176987725458
79.32561706605664
78.6999530945057
78.07426392219645
77.4477143291063
76.81900247884869
76.18627734746073
75.54726147739736
63.71570520982539
60.04186394904993
58.856661776798504
58.477586911629984
58.34946787980937
58.28445910953239
58.187954286575405
57.91924221519853
57.06238994086055
57.016963815111126
56.97233101999055
56.928523238992135
56.88557581820261
56.84353167331389
56.802439048135916
56.7623392122468
56.72326287750214
56.685228506506256
87.84988137897325
87.31352880784569
86.7826734447323
86.25713295788215
85.73663931440734
85.22084164004502
84.70928812886591
84.20139700501497
83.69641560138038
83.19336261928048