# vtk DataFile Version 2.0
Niestacjonarne zagadnienie cieplne - ogrzewanie wody w garnku stalowym
ASCII
DATASET UNSTRUCTURED_GRID
POINTS 1353 float
0.0 0.0 0.0
0.0 0.0015384615384615385 0.0
0.0 0.003076923076923077 0.0
0.0 0.004615384615384615 0.0
0.0 0.006153846153846154 0.0
0.0 0.007692307692307693 0.0
0.0 0.00923076923076923 0.0
0.0 0.010769230769230769 0.0
0.0 0.012307692307692308 0.0
0.0 0.013846153846153847 0.0
0.0 0.015384615384615385 0.0
0.0 0.016923076923076923 0.0
0.0 0.01846153846153846 0.0
0.0 0.02 0.0
0.0 0.020555555555555556 0.0
0.0 0.021111111111111112 0.0
0.0 0.021666666666666667 0.0
0.0 0.022222222222222223 0.0
0.0 0.02277777777777778 0.0
0.0 0.023333333333333334 0.0
0.0 0.02388888888888889 0.0
0.0 0.024444444444444446 0.0
0.0 0.025 0.0
0.0 0.036111111111111115 0.0
0.0 0.04722222222222222 0.0
0.0 0.058333333333333334 0.0
0.0 0.06944444444444445 0.0
0.0 0.08055555555555556 0.0
0.0 0.09166666666666667 0.0
0.0 0.10277777777777777 0.0
0.0 0.1138888888888889 0.0
0.0 0.125 0.0
0.0 0.12555555555555556 0.0
0.0 0.12611111111111112 0.0
0.0 0.12666666666666668 0.0
0.0 0.1272222222222222 0.0
0.0 0.12777777777777777 0.0
0.0 0.12833333333333333 0.0
0.0 0.1288888888888889 0.0
0.0 0.12944444444444445 0.0
0.0 0.13 0.0
5.555555555555556E-4 0.0 0.0
5.555555555555556E-4 0.0015384615384615385 0.0
5.555555555555556E-4 0.003076923076923077 0.0
5.555555555555556E-4 0.004615384615384615 0.0
5.555555555555556E-4 0.006153846153846154 0.0
5.555555555555556E-4 0.007692307692307693 0.0
5.555555555555556E-4 0.00923076923076923 0.0
5.555555555555556E-4 0.010769230769230769 0.0
5.555555555555556E-4 0.012307692307692308 0.0
5.555555555555556E-4 0.013846153846153847 0.0
5.555555555555556E-4 0.015384615384615385 0.0
5.555555555555556E-4 0.016923076923076923 0.0
5.555555555555556E-4 0.01846153846153846 0.0
5.555555555555556E-4 0.02 0.0
5.555555555555556E-4 0.020555555555555556 0.0
5.555555555555556E-4 0.021111111111111112 0.0
5.555555555555556E-4 0.021666666666666667 0.0
5.555555555555556E-4 0.022222222222222223 0.0
5.555555555555556E-4 0.02277777777777778 0.0
5.555555555555556E-4 0.023333333333333334 0.0
5.555555555555556E-4 0.02388888888888889 0.0
5.555555555555556E-4 0.024444444444444446 0.0
5.555555555555556E-4 0.025 0.0
5.555555555555556E-4 0.036111111111111115 0.0
5.555555555555556E-4 0.04722222222222222 0.0
5.555555555555556E-4 0.058333333333333334 0.0
5.555555555555556E-4 0.06944444444444445 0.0
5.555555555555556E-4 0.08055555555555556 0.0
5.555555555555556E-4 0.09166666666666667 0.0
5.555555555555556E-4 0.10277777777777777 0.0
5.555555555555556E-4 0.1138888888888889 0.0
5.555555555555556E-4 0.125 0.0
5.555555555555556E-4 0.12555555555555556 0.0
5.555555555555556E-4 0.12611111111111112 0.0
5.555555555555556E-4 0.12666666666666668 0.0
5.555555555555556E-4 0.1272222222222222 0.0
5.555555555555556E-4 0.12777777777777777 0.0
5.555555555555556E-4 0.12833333333333333 0.0
5.555555555555556E-4 0.1288888888888889 0.0
5.555555555555556E-4 0.12944444444444445 0.0
5.555555555555556E-4 0.13 0.0
0.0011111111111111111 0.0 0.0
0.0011111111111111111 0.0015384615384615385 0.0
0.0011111111111111111 0.003076923076923077 0.0
0.0011111111111111111 0.004615384615384615 0.0
0.0011111111111111111 0.006153846153846154 0.0
0.0011111111111111111 0.007692307692307693 0.0
0.0011111111111111111 0.00923076923076923 0.0
0.0011111111111111111 0.010769230769230769 0.0
0.0011111111111111111 0.012307692307692308 0.0
0.0011111111111111111 0.013846153846153847 0.0
0.0011111111111111111 0.015384615384615385 0.0
0.0011111111111111111 0.016923076923076923 0.0
0.0011111111111111111 0.01846153846153846 0.0
0.0011111111111111111 0.02 0.0
0.0011111111111111111 0.020555555555555556 0.0
0.0011111111111111111 0.021111111111111112 0.0
0.0011111111111111111 0.021666666666666667 0.0
0.0011111111111111111 0.022222222222222223 0.0
0.0011111111111111111 0.02277777777777778 0.0
0.0011111111111111111 0.023333333333333334 0.0
0.0011111111111111111 0.02388888888888889 0.0
0.0011111111111111111 0.024444444444444446 0.0
0.0011111111111111111 0.025 0.0
0.0011111111111111111 0.036111111111111115 0.0
0.0011111111111111111 0.04722222222222222 0.0
0.0011111111111111111 0.058333333333333334 0.0
0.0011111111111111111 0.06944444444444445 0.0
0.0011111111111111111 0.08055555555555556 0.0
0.0011111111111111111 0.09166666666666667 0.0
0.0011111111111111111 0.10277777777777777 0.0
0.0011111111111111111 0.1138888888888889 0.0
0.0011111111111111111 0.125 0.0
0.0011111111111111111 0.12555555555555556 0.0
0.0011111111111111111 0.12611111111111112 0.0
0.0011111111111111111 0.12666666666666668 0.0
0.0011111111111111111 0.1272222222222222 0.0
0.0011111111111111111 0.12777777777777777 0.0
0.0011111111111111111 0.12833333333333333 0.0
0.0011111111111111111 0.1288888888888889 0.0
0.0011111111111111111 0.12944444444444445 0.0
0.0011111111111111111 0.13 0.0
0.0016666666666666666 0.0 0.0
0.0016666666666666666 0.0015384615384615385 0.0
0.0016666666666666666 0.003076923076923077 0.0
0.0016666666666666666 0.004615384615384615 0.0
0.0016666666666666666 0.006153846153846154 0.0
0.0016666666666666666 0.007692307692307693 0.0
0.0016666666666666666 0.00923076923076923 0.0
0.0016666666666666666 0.010769230769230769 0.0
0.0016666666666666666 0.012307692307692308 0.0
0.0016666666666666666 0.013846153846153847 0.0
0.0016666666666666666 0.015384615384615385 0.0
0.0016666666666666666 0.016923076923076923 0.0
0.0016666666666666666 0.01846153846153846 0.0
0.0016666666666666666 0.02 0.0
0.0016666666666666666 0.020555555555555556 0.0
0.0016666666666666666 0.021111111111111112 0.0
0.0016666666666666666 0.021666666666666667 0.0
0.0016666666666666666 0.022222222222222223 0.0
0.0016666666666666666 0.02277777777777778 0.0
0.0016666666666666666 0.023333333333333334 0.0
0.0016666666666666666 0.02388888888888889 0.0
0.0016666666666666666 0.024444444444444446 0.0
0.0016666666666666666 0.025 0.0
0.0016666666666666666 0.036111111111111115 0.0
0.0016666666666666666 0.04722222222222222 0.0
0.0016666666666666666 0.058333333333333334 0.0
0.0016666666666666666 0.06944444444444445 0.0
0.0016666666666666666 0.08055555555555556 0.0
0.0016666666666666666 0.09166666666666667 0.0
0.0016666666666666666 0.10277777777777777 0.0
0.0016666666666666666 0.1138888888888889 0.0
0.0016666666666666666 0.125 0.0
0.0016666666666666666 0.12555555555555556 0.0
0.0016666666666666666 0.12611111111111112 0.0
0.0016666666666666666 0.12666666666666668 0.0
0.0016666666666666666 0.1272222222222222 0.0
0.0016666666666666666 0.12777777777777777 0.0
0.0016666666666666666 0.12833333333333333 0.0
0.0016666666666666666 0.1288888888888889 0.0
0.0016666666666666666 0.12944444444444445 0.0
0.0016666666666666666 0.13 0.0
0.0022222222222222222 0.0 0.0
0.0022222222222222222 0.0015384615384615385 0.0
0.0022222222222222222 0.003076923076923077 0.0
0.0022222222222222222 0.004615384615384615 0.0
0.0022222222222222222 0.006153846153846154 0.0
0.0022222222222222222 0.007692307692307693 0.0
0.0022222222222222222 0.00923076923076923 0.0
0.0022222222222222222 0.010769230769230769 0.0
0.0022222222222222222 0.012307692307692308 0.0
0.0022222222222222222 0.013846153846153847 0.0
0.0022222222222222222 0.015384615384615385 0.0
0.0022222222222222222 0.016923076923076923 0.0
0.0022222222222222222 0.01846153846153846 0.0
0.0022222222222222222 0.02 0.0
0.0022222222222222222 0.020555555555555556 0.0
0.0022222222222222222 0.021111111111111112 0.0
0.0022222222222222222 0.021666666666666667 0.0
0.0022222222222222222 0.022222222222222223 0.0
0.0022222222222222222 0.02277777777777778 0.0
0.0022222222222222222 0.023333333333333334 0.0
0.0022222222222222222 0.02388888888888889 0.0
0.0022222222222222222 0.024444444444444446 0.0
0.0022222222222222222 0.025 0.0
0.0022222222222222222 0.036111111111111115 0.0
0.0022222222222222222 0.04722222222222222 0.0
0.0022222222222222222 0.058333333333333334 0.0
0.0022222222222222222 0.06944444444444445 0.0
0.0022222222222222222 0.08055555555555556 0.0
0.0022222222222222222 0.09166666666666667 0.0
0.0022222222222222222 0.10277777777777777 0.0
0.0022222222222222222 0.1138888888888889 0.0
0.0022222222222222222 0.125 0.0
0.0022222222222222222 0.12555555555555556 0.0
0.0022222222222222222 0.12611111111111112 0.0
0.0022222222222222222 0.12666666666666668 0.0
0.0022222222222222222 0.1272222222222222 0.0
0.0022222222222222222 0.12777777777777777 0.0
0.0022222222222222222 0.12833333333333333 0.0
0.0022222222222222222 0.1288888888888889 0.0
0.0022222222222222222 0.12944444444444445 0.0
0.0022222222222222222 0.13 0.0
0.002777777777777778 0.0 0.0
0.002777777777777778 0.0015384615384615385 0.0
0.002777777777777778 0.003076923076923077 0.0
0.002777777777777778 0.004615384615384615 0.0
0.002777777777777778 0.006153846153846154 0.0
0.002777777777777778 0.007692307692307693 0.0
0.002777777777777778 0.00923076923076923 0.0
0.002777777777777778 0.010769230769230769 0.0
0.002777777777777778 0.012307692307692308 0.0
0.002777777777777778 0.013846153846153847 0.0
0.002777777777777778 0.015384615384615385 0.0
0.002777777777777778 0.016923076923076923 0.0
0.002777777777777778 0.01846153846153846 0.0
0.002777777777777778 0.02 0.0
0.002777777777777778 0.020555555555555556 0.0
0.002777777777777778 0.021111111111111112 0.0
0.002777777777777778 0.021666666666666667 0.0
0.002777777777777778 0.022222222222222223 0.0
0.002777777777777778 0.02277777777777778 0.0
0.002777777777777778 0.023333333333333334 0.0
0.002777777777777778 0.02388888888888889 0.0
0.002777777777777778 0.024444444444444446 0.0
0.002777777777777778 0.025 0.0
0.002777777777777778 0.036111111111111115 0.0
0.002777777777777778 0.04722222222222222 0.0
0.002777777777777778 0.058333333333333334 0.0
0.002777777777777778 0.06944444444444445 0.0
0.002777777777777778 0.08055555555555556 0.0
0.002777777777777778 0.09166666666666667 0.0
0.002777777777777778 0.10277777777777777 0.0
0.002777777777777778 0.1138888888888889 0.0
0.002777777777777778 0.125 0.0
0.002777777777777778 0.12555555555555556 0.0
0.002777777777777778 0.12611111111111112 0.0
[...]
POINT_DATA 1353
SCALARS Temperatura float 1
LOOKUP_TABLE default
98.7795282959066
98.25220811119028
97.73001576264093
97.21257104007563
96.69952221057379
96.19043690947328
95.68476113407428
95.1817672629798
94.68048413716994
94.17956409191076
93.67714041710246
93.17005467242434
92.65448506032932
92.10905485730424
91.3997243357669
90.72952662141593
90.07152521824257
89.42100670937462
88.77503084108633
88.13170028052645
87.4896469608491
86.84788695841311
86.20578110428053
74.99838920066746
70.93100981564277
69.73441769892389
69.32969091059995
69.19514549073752
69.1200029550557
69.0032506925275
68.64004479690273
67.65802538837161
67.60405220594623
67.55057390730754
67.49766306377883
67.44537812882109
67.39376576412353
67.34286261945665
67.29269646220651
67.24328674649819
67.19464481296055
98.80300671352727
98.27557693620172
97.7532481507257
97.23567253765862
96.72249886757471
96.21329789184047
95.70751828939039
95.20443754556702
94.70308794655611
94.20214975770169
93.69970757612998
93.19300031931263
92.67671813406133
92.1398443185267
91.46441642604744
90.79709268686929
90.14064854461078
89.49074732948029
88.84500984299662
88.2016868309724
87.55946543812128
86.91737182737403
86.27475754902551
75.0424976314779
70.98210951319984
69.78522541784103
69.38078283921352
69.24629109354113
69.1711880079606
69.05441400758866
68.69185255207026
67.70743341755053
67.65335997773445
67.59979030207393
67.54679567221388
67.49443337791725
67.44274922378018
67.39177935269866
67.34155131294274
67.29208451493787
67.24339032118294
98.82658136461575
98.29910084600172
97.77667806766868
97.25901633653568
96.74577346445037
96.23652797575022
95.73073777034051
95.22769313724866
94.72644901095784
94.22571627651153
93.72367133539198
93.21765600671743
92.70288457713924
92.17452438147149
91.51394389603537
90.85704164403398
90.20533400318214
89.55833192626503
88.91450843912556
88.27248275702239
87.63106621825095
86.98929777436341
86.34648885247114
75.06217407818224
71.03133828706379
69.8359197837418
69.43318889848629
69.29912308149353
69.22429709837408
69.10768680228371
68.7478236387083
67.75818849100837
67.70392592775111
67.65019290566377
67.5970563640682
67.54456979606033
67.49277631060839
67.44171054072277
67.39139945215837
67.34186240468452
67.29311088109198
98.85028146987787
98.32278072800888
97.80030458412755
97.28260046478293
96.76934303897067
96.26012314000344
95.75441367013582
95.25152656994021
94.75055124255489
94.25025644991572
93.74894018218035
93.24412903003673
92.7321556285104
92.2108836637256
91.56068676863651
90.9124862167313
90.26714811435477
89.62459801333183
88.98408288824947
88.34454930805546
87.70491433248573
87.06418276734615
86.42155669384033
75.05690510534998
71.07895037602344
69.88643222952521
69.4869352886339
69.35363572910296
69.27933995407868
69.16304864014437
68.80800284603121
67.81026215308441
67.75572594044343
67.70176230197286
67.64842971052798
67.59577465873463
67.54383569650622
67.49264528481072
67.4422299021975
67.3926092375921
67.3437952296997
98.8741220200162
98.34661995194666
97.82412579227892
97.30642155761558
96.79320265858597
96.28407657923584
95.77853656753513
95.27592396906967
94.77537426583154
94.27573581431126
93.77544861866967
93.27234278104592
92.76374846632268
92.24862039037718
91.60692635986096
90.96649573765887
90.32774051944916
89.69058352833522
89.05448095930943
88.41855426419104
87.7817307033133
87.14287712906938
86.50095698596789
75.025834119173
71.12538095582069
69.9366437766641
69.54206672024709
69.40981750620847
69.33633209919394
69.22046314406246
68.87246327465697
67.86360414668944
67.80871864463332
67.75446631269332
67.70089085868226
67.64802760263464
67.5959088865587
67.54456525291728
67.49402376397994
67.44430553154682
67.39542366515813
98.89811078070106
98.37062083677944
97.84813909698416
97.33047478278921
96.81734545258159
96.30837888312195
95.80309341598685
95.30086651252935
94.80089011916824
94.3021073431762
93.80312355508653
93.30211941865375
92.79716745837554
92.2876399048502
91.65358158190874
91.02044777318687
90.3883793847849
89.7572159671235
89.12645286311773
88.49524137748399
87.86241240843641
87.22654507862086
86.58614951396063
74.96773311948662
71.17126202539136
69.98637759498666
69.59864943670013
69.46764976432553
69.3952958201853
69.27987664159167
68.94130835251997
67.91813922280294
67.86284533900579
67.80826233733465
67.75440886687127
67.70130345808788
67.64897191655054
67.59744526849892
67.54675412271088
67.49692305619612
67.44796749759382
98.92225109861572
98.39478378429204
97.87234090695206
97.35475387556741
96.84176266757424
96.33301816446172
95.82806782314299
95.32633085827277
94.82706388855105
94.32931579194063
93.83187414562872
93.3332636051814
92.83208478353038
92.32786830250912
91.70105317954075
91.07503507134537
90.44980449003695
89.8251462545619
89.20057420623986
88.57526111687436
87.9478996628015
87.31662558132527
86.67914484623033
74.88095777129466
71.21744649385911
70.03538787517945
69.65677573137594
69.5271047698476
69.45626160342475
69.3412161519165
69.01467492933332
67.97376185240496
67.91803075307747
67.86310321539419
67.80895340626321
67.7555773475692
67.7029972557218
67.65125356628475
67.6003854706653
67.55042388953761
67.50138800458508
98.94654319252881
98.41910718401098
97.89672638349113
97.37925115131013
96.86644374897732
96.35798022337526
95.85344037502915
95.35228959923721
94.85385507701584
94.35729877398518
93.8615974269232
93.3655904571252
92.86826170049129
92.36921745007874
91.74949676890843
91.13057547854933
90.51237924752981
89.89469453173585
89.27710763024986
88.65891274344766
88.03892748669547
87.41471161746435
86.78265485807948
74.76337776875071
71.26504311082435
70.08334406997723
69.71657031819873
69.58814293063855
69.51927014940652
69.4043865517205
69.09273786498471
68.03032755029368
67.97418749271718
67.91894789626407
67.86451348100641
67.81082944147118
67.7579546504415
67.70595094232193
67.65487224215842
67.60475875246092
67.55563472364209
98.97098484688203
98.44358753226135
97.92128932118851
97.4039575162886
96.89137644087847
96.3832487424103
95.87918897615528
95.3787118660142
94.88121879774901
94.38598830051497
93.89218496281677
93.39893063619034
92.90550563058622
92.41158032772567
91.79892665776585
91.18715735538026
90.57619149541233
89.96587050101887
89.35592439989382
88.74592005686821
88.13513098296607
87.52240258111087
86.90035226928137
74.61226877370981
71.3154666459908
70.12980898668795
69.77819910658839
69.65070900509218
69.58437504458051
69.469266952466
69.17571571761067
68.08764265915963
68.03114891146966
67.97587102087762
67.9211038483671
67.86704563265234
67.81380881028133
67.7614879802011
67.71015614154582
67.6598645142662
67.61064303236655
98.99557184685172
98.46821960283538
97.94602212649339
97.42886249672593
96.91654690062792
96.40880550054656
95.90528921457307
95.4055639781418
94.9091068828287
94.41531274787981
93.92352723078983
93.43312802531896
92.94364738379878
92.45483337353585
91.84927073408409
91.24472418032896
90.64113775435978
90.03843743505963
89.4365370740969
88.83536182772332
88.23490595660886
87.6353542894122
72.50949327558656
72.50949327558656
72.50949327558656
72.50949327558656
72.50949327558656
72.50949327558656
72.50949327558656
72.50949327558656
72.50949327558656
72.50949327558656
68.08965638731112
68.03398611826306
67.97875808222435
67.9242082387846
67.87051261324278
67.81779998148997
67.76616227406218
67.71566100351842
67.66633118019277
99.48080522142004
98.95488815720677
98.43625909477478
97.92498742975079
97.42119118896525
96.9250483279814
96.43681490572314
95.95685137195976
95.48565828901876
95.02392257662336
94.57257412878413
94.13285162437357
93.70638413111108
93.29532285272475
92.79778146884777
92.30415938964298
91.81503822249475
91.33103615136855
90.85281440625467
90.38107975232012
89.91657843359222
89.46007341773768
72.50949327558656
72.50949327558656
72.50949327558656
72.50949327558656
72.50949327558656
72.50949327558656
72.50949327558656
72.50949327558656
72.50949327558656
72.50949327558656
69.20406972384623
69.11924782019261
69.03967277008744
68.96508490155331
68.89527700354955
68.83008728005744
68.76939376348368
68.71311051810773
68.661185155581
99.92713954894579
99.40218671232283
98.88570858545411
98.3777536560164
97.87839742990727
97.38774071168899
96.90590598233129
96.43303075103688
95.96925623730779
95.51470910854334
95.06947338700586
94.63354867344152
94.20678703657278
93.78879051425446
93.27636822603861
92.7658190984082
92.25694646776634
91.74952840014201
91.24331065494576
90.73800011077141
90.23325977733303
89.72870753610609
72.50949327558656
72.50949327558656
72.50949327558656
72.50949327558656
72.50949327558656
72.50949327558656
72.50949327558656
72.50949327558656
72.50949327558656
72.50949327558656
69.50777186974214
69.44243298275047
69.37882346503577
69.31708123925766
69.25731487381698
69.19960770936324
69.14402108244363
69.09059662526911
69.03935781805907
100.28117627541278
99.75649038756794
99.24021606885908
98.73236124278218
98.2329333994851
97.74193807258241
97.25937693119334
96.7852457582762
96.31953281676421
95.86221846149168
95.41327735590946
94.97268547186596
94.54043599197541
94.11657266986175
93.5970300908389
93.07964413569582
92.56446179035571
92.05154011390724
91.54094979382762
91.03277888881298
90.52713653415235
90.02415610440279
72.50949327558656
72.50949327558656
72.50949327558656
72.50949327558656
72.50949327558656
72.50949327558656
72.50949327558656
72.50949327558656
72.50949327558656
72.50949327558656
69.61975599886574
69.55407203985584
69.49054079937697
69.42911719195997
69.36976651915276
69.31246246667014
69.25718556057681
69.20392205414443
69.15266317347269
100.5382285406925
100.01360677206189
99.49709931002398
98.98870932925995
98.4884377738807
97.99628353534612
97.51224373388416
97.0363141171812
96.56848954182203
96.10876440101129
95.65713268045977
95.21358698119926
94.77811505992867
94.35069068082913
93.82641267049809
93.304172489973
92.78395430367101
92.2657387007606
91.74950128595697
91.23521109947127
90.72282889033542
90.21230534070264
72.50949327558656
72.50949327558656
72.50949327558656
72.50949327558656
72.50949327558656
72.50949327558656
72.50949327558656
72.50949327558656
72.50949327558656
72.50949327558656
69.6537161660065
69.58949023982568
69.5270942020469
69.4665423556138
69.40784497527119
69.35100913170704
69.29603931713228
69.24293789463707
69.19170540125236
100.71079066525063
100.18620143176739
99.66950719094929
99.1607114394941
98.65981565661512
98.16681927629645
97.68171962961455
97.20451183908416
96.73518865190809
96.27374021843801
95.82015386835918
95.3744140431695
94.93650281026451
94.50640201053614
93.97865894234009
93.45294190498647
92.92925086204201
92.40758683933976
91.88795242427403
91.37035235332134
90.85479419582576
90.3412891242677
72.50949327558656
72.50949327558656
72.50949327558656
72.50949327558656
72.50949327558656
72.50949327558656
72.50949327558656
72.50949327558656
72.50949327558656
72.50949327558656
69.66533639889965
69.60121491298452
69.53894878293201
69.47853204058872
69.41995992646922
69.36322857519305
69.3083347804799
69.25527582783671
69.2040493826846
100.8099349884961
100.28536310200693
99.7685574134915
99.25952133621679
98.75825629153002
98.264761707809
97.77903502590809
97.30107171855995
96.83086533285594
96.36840756387856
95.91368835943163
95.46669602829697
95.02741724064667
94.5958365904244
94.06617968574254
93.53853234240543
93.01289129426395
92.48925287453896
91.96761283964898
91.44796615212329
90.9303067141759
90.41462704738247
72.50949327558656
72.50949327558656
72.50949327558656
72.50949327558656
72.50949327558656
72.50949327558656
72.50949327558656
72.50949327558656
72.50949327558656
72.50949327558656
69.66890259652747
69.60490177619076
69.54272835002803
69.48238219604049
69.42386270644863
69.36716890823763
69.31229955150953
69.25925317152564
69.2080281297045
100.84225895691662
100.31769252589228
99.8008499281199
99.29173463118693
98.79034817812285
98.29669019489248
97.81075839912538
97.33254860643922
96.86205472883788
96.39926875826679
95.94418072972583
95.49677866930624
95.05704857456547
94.62497459623975
94.09467748053594
93.56638561109907
93.04009676212256
92.51580885047733
91.993520036829
91.4732288539227
90.9549343690542
90.4386363864799
72.50949327558656
72.50949327558656
72.50949327558656
72.50949327558656
72.50949327558656
72.50949327558656
72.50949327558656
72.50949327558656
72.50949327558656
72.50949327558656
69.66973774352807
69.60574448017702
69.54358179654557
69.48324728658616
69.42473875996077
69.36805416877944
69.31319155460115
69.26014901160144
69.20892466246494
100.80993498849666
100.2853631020075
99.76855741349203
99.2595213362173
98.75825629153046
98.26476170780937
97.77903502590846
97.30107171856035
96.83086533285638
96.368407563879
95.91368835943207
95.46669602829745
95.02741724064717
94.59583659042491
94.06617968574307
93.53853234240594
93.01289129426445
92.48925287453942
91.96761283964942
91.44796615212373
90.93030671417635
90.41462704738295
72.50949327558656
72.50949327558656
72.50949327558656
72.50949327558656
72.50949327558656
72.50949327558656
72.50949327558656
72.50949327558656
72.50949327558656
72.50949327558656
69.66890259652817
69.60490177619148
69.54272835002877
69.48238219604124
69.42386270644938
69.36716890823843
69.31229955151032
69.25925317152644
69.20802812970531
100.71079066525148
100.18620143176825
99.66950719095016
99.16071143949495
98.65981565661598
98.16681927629729
97.68171962961534
97.20451183908494
96.73518865190881
96.27374021843873
95.8201538683599
95.37441404317022
94.93650281026524
94.5064020105369
93.97865894234086
93.45294190498723
92.92925086204276
92.40758683934051
91.88795242427476
91.37035235332208
90.85479419582651
90.34128912426841
72.50949327558656
72.50949327558656
72.50949327558656
72.50949327558656
72.50949327558656
72.50949327558656
72.50949327558656
72.50949327558656
72.50949327558656
72.50949327558656
69.66533639890123
69.60121491298611
69.53894878293364
69.47853204059041
69.41995992647092
69.36322857519474
69.3083347804816
69.25527582783842
69.2040493826863
100.53822854069308
100.01360677206243
99.49709931002448
98.98870932926043
98.48843777388119
97.99628353534658
97.51224373388462
97.0363141171816
96.56848954182243
96.10876440101165
95.6571326804602
95.21358698119971
94.77811505992918
94.35069068082966
93.82641267049863
93.30417248997355
92.78395430367156
92.2657387007611
91.7495012859574
91.23521109947164
90.72282889033575
90.21230534070295
72.50949327558656
72.50949327558656
72.50949327558656
72.50949327558656
72.50949327558656
72.50949327558656
72.50949327558656
72.50949327558656
72.50949327558656
72.50949327558656
69.65371616601051
69.5894902398298
69.52709420205109
69.46654235561799
69.40784497527537
69.35100913171117
69.2960393171363
69.242937894641
69.19170540125627
100.28117627541316
99.75649038756833
99.24021606885952
98.73236124278267
98.23293339948559
97.74193807258291
97.25937693119384
96.78524575827672
96.31953281676476
95.86221846149223
95.41327735590998
94.97268547186647
94.54043599197587
94.11657266986218
93.59703009083933
93.07964413569617
92.56446179035608
92.05154011390765
91.54094979382815
91.03277888881355
90.52713653415293
90.02415610440337
72.50949327558656
72.50949327558656
72.50949327558656
72.50949327558656
72.50949327558656
72.50949327558656
72.50949327558656
72.50949327558656
72.50949327558656
72.50949327558656
69.619755998869
69.55407203985915
69.49054079938035
69.42911719196343
69.36976651915629
69.31246246667372
69.25718556058044
69.20392205414811
69.15266317347638
99.92713954894549
99.40218671232253
98.88570858545381
98.37775365601603
97.8783974299069
97.38774071168865
96.90590598233096
96.43303075103654
95.96925623730742
95.51470910854304
95.06947338700567
94.63354867344138
94.20678703657263
93.78879051425436
93.27636822603853
92.76581909840816
92.2569464677663
91.74952840014201
91.2433106549457
90.73800011077134
90.23325977733292
89.72870753610592
72.50949327558656
72.50949327558656
72.50949327558656
72.50949327558656
72.50949327558656
72.50949327558656
72.50949327558656
72.50949327558656
72.50949327558656
72.50949327558656
69.50777186974456
69.44243298275293
69.37882346503824
69.31708123926013
69.25731487381945
69.1996077093657
69.14402108244605
69.09059662527149
69.03935781806146
99.4808052214193
98.95488815720606
98.43625909477403
97.92498742975006
97.42119118896451
96.9250483279807
96.4368149057225
95.95685137195912
95.48565828901816
95.02392257662282
94.57257412878367
94.13285162437326
93.70638413111077
93.29532285272448
92.79778146884755
92.30415938964275
91.81503822249458
91.33103615136835
90.85281440625448
90.3810797523199
89.91657843359201
89.46007341773748
72.50949327558656
72.50949327558656
72.50949327558656
72.50949327558656
72.50949327558656
72.50949327558656
72.50949327558656
72.50949327558656
72.50949327558656
72.50949327558656
69.20406972384787
69.11924782019427
69.03967277008915
68.96508490155507
68.89527700355131
68.83008728005922
68.7693937634855
68.71311051810959
68.66118515558286
98.99557184685077
98.46821960283442
97.94602212649255
97.4288624967252
96.91654690062738
96.40880550054615
95.90528921457268
95.40556397814146
94.90910688282835
94.4153127478795
93.92352723078949
93.43312802531852
92.9436473837984
92.45483337353556
91.84927073408392
91.24472418032899
90.64113775435989
90.03843743505989
89.43653707409727
88.83536182772376
88.23490595660934
87.63535428941269
72.50949327558656
72.50949327558656
72.50949327558656
72.50949327558656
72.50949327558656
72.50949327558656
72.50949327558656
72.50949327558656
72.50949327558656
72.50949327558656
68.08965638731293
68.03398611826493
67.97875808222624
67.92420823878652
67.87051261324476
67.81779998149196
67.76616227406413
67.71566100352032
67.66633118019466
98.97098484688098
98.44358753226031
97.92128932118769
97.40395751628789
96.89137644087798
96.38324874240988
95.8791889761549
95.37871186601382
94.88121879774867
94.38598830051464
93.89218496281636
93.39893063618982
92.90550563058578
92.41158032772543
91.79892665776575
91.1871573553803
90.57619149541252
89.96587050101911
89.35592439989422
88.74592005686871
88.13513098296656
87.52240258111145
86.90035226928194
74.61226877371162
71.31546664599074
70.12980898668773
69.77819910658978
69.65070900509261
69.58437504458118
69.46926695246665
69.17571571760956
68.08764265916135
68.03114891147146
67.97587102087947
67.92110384836894
67.86704563265425
67.81380881028322
67.76148798020294
67.71015614154771
67.65986451426805
67.61064303236834
98.94654319252777
98.41910718400993
97.89672638349035
97.37925115130949
96.86644374897683
96.35798022337487
95.85344037502882
95.35228959923687
94.8538550770155
94.35729877398492
93.86159742692274
93.36559045712472
92.86826170049089
92.3692174500785
91.74949676890833
91.13057547854932
90.51237924752996
89.89469453173612
89.27710763025027
88.65891274344811
88.03892748669597
87.41471161746497
86.78265485808008
74.76337776875266
71.26504311082434
70.0833440699772
69.71657031820006
69.5881429306391
69.5192701494072
69.40438655172129
69.09273786498363
68.03032755029547
67.97418749271898
67.91894789626589
67.86451348100822
67.81082944147302
67.75795465044337
67.70595094232374
67.65487224216021
67.60475875246276
67.55563472364389
98.92225109861461
98.39478378429101
97.87234090695122
97.35475387556673
96.84176266757375
96.33301816446124
95.8280678231426
95.32633085827237
94.8270638885508
94.32931579194032
93.83187414562836
93.333263605181
92.83208478352996
92.3278683025089
91.70105317954066
91.07503507134534
90.44980449003712
89.82514625456221
89.20057420624029
88.57526111687488
87.94789966280206
87.31662558132591
86.67914484623101
74.88095777129661
71.2174464938592
70.03538787517944
69.65677573137727
69.52710476984811
69.45626160342543
69.3412161519174
69.01467492933224
67.97376185240677
67.91803075307925
67.86310321539598
67.808953406265
67.755577347571
67.70299725572357
67.65125356628653
67.60038547066706
67.55042388953936
67.50138800458683
98.89811078069997
98.37062083677844
97.84813909698329
97.33047478278858
96.81734545258102
96.30837888312148
95.80309341598644