# vtk DataFile Version 2.0
Niestacjonarne zagadnienie cieplne - ogrzewanie wody w garnku stalowym
ASCII
DATASET UNSTRUCTURED_GRID
POINTS 1353 float
0.0 0.0 0.0
0.0 0.0015384615384615385 0.0
0.0 0.003076923076923077 0.0
0.0 0.004615384615384615 0.0
0.0 0.006153846153846154 0.0
0.0 0.007692307692307693 0.0
0.0 0.00923076923076923 0.0
0.0 0.010769230769230769 0.0
0.0 0.012307692307692308 0.0
0.0 0.013846153846153847 0.0
0.0 0.015384615384615385 0.0
0.0 0.016923076923076923 0.0
0.0 0.01846153846153846 0.0
0.0 0.02 0.0
0.0 0.020555555555555556 0.0
0.0 0.021111111111111112 0.0
0.0 0.021666666666666667 0.0
0.0 0.022222222222222223 0.0
0.0 0.02277777777777778 0.0
0.0 0.023333333333333334 0.0
0.0 0.02388888888888889 0.0
0.0 0.024444444444444446 0.0
0.0 0.025 0.0
0.0 0.036111111111111115 0.0
0.0 0.04722222222222222 0.0
0.0 0.058333333333333334 0.0
0.0 0.06944444444444445 0.0
0.0 0.08055555555555556 0.0
0.0 0.09166666666666667 0.0
0.0 0.10277777777777777 0.0
0.0 0.1138888888888889 0.0
0.0 0.125 0.0
0.0 0.12555555555555556 0.0
0.0 0.12611111111111112 0.0
0.0 0.12666666666666668 0.0
0.0 0.1272222222222222 0.0
0.0 0.12777777777777777 0.0
0.0 0.12833333333333333 0.0
0.0 0.1288888888888889 0.0
0.0 0.12944444444444445 0.0
0.0 0.13 0.0
5.555555555555556E-4 0.0 0.0
5.555555555555556E-4 0.0015384615384615385 0.0
5.555555555555556E-4 0.003076923076923077 0.0
5.555555555555556E-4 0.004615384615384615 0.0
5.555555555555556E-4 0.006153846153846154 0.0
5.555555555555556E-4 0.007692307692307693 0.0
5.555555555555556E-4 0.00923076923076923 0.0
5.555555555555556E-4 0.010769230769230769 0.0
5.555555555555556E-4 0.012307692307692308 0.0
5.555555555555556E-4 0.013846153846153847 0.0
5.555555555555556E-4 0.015384615384615385 0.0
5.555555555555556E-4 0.016923076923076923 0.0
5.555555555555556E-4 0.01846153846153846 0.0
5.555555555555556E-4 0.02 0.0
5.555555555555556E-4 0.020555555555555556 0.0
5.555555555555556E-4 0.021111111111111112 0.0
5.555555555555556E-4 0.021666666666666667 0.0
5.555555555555556E-4 0.022222222222222223 0.0
5.555555555555556E-4 0.02277777777777778 0.0
5.555555555555556E-4 0.023333333333333334 0.0
5.555555555555556E-4 0.02388888888888889 0.0
5.555555555555556E-4 0.024444444444444446 0.0
5.555555555555556E-4 0.025 0.0
5.555555555555556E-4 0.036111111111111115 0.0
5.555555555555556E-4 0.04722222222222222 0.0
5.555555555555556E-4 0.058333333333333334 0.0
5.555555555555556E-4 0.06944444444444445 0.0
5.555555555555556E-4 0.08055555555555556 0.0
5.555555555555556E-4 0.09166666666666667 0.0
5.555555555555556E-4 0.10277777777777777 0.0
5.555555555555556E-4 0.1138888888888889 0.0
5.555555555555556E-4 0.125 0.0
5.555555555555556E-4 0.12555555555555556 0.0
5.555555555555556E-4 0.12611111111111112 0.0
5.555555555555556E-4 0.12666666666666668 0.0
5.555555555555556E-4 0.1272222222222222 0.0
5.555555555555556E-4 0.12777777777777777 0.0
5.555555555555556E-4 0.12833333333333333 0.0
5.555555555555556E-4 0.1288888888888889 0.0
5.555555555555556E-4 0.12944444444444445 0.0
5.555555555555556E-4 0.13 0.0
0.0011111111111111111 0.0 0.0
0.0011111111111111111 0.0015384615384615385 0.0
0.0011111111111111111 0.003076923076923077 0.0
0.0011111111111111111 0.004615384615384615 0.0
0.0011111111111111111 0.006153846153846154 0.0
0.0011111111111111111 0.007692307692307693 0.0
0.0011111111111111111 0.00923076923076923 0.0
0.0011111111111111111 0.010769230769230769 0.0
0.0011111111111111111 0.012307692307692308 0.0
0.0011111111111111111 0.013846153846153847 0.0
0.0011111111111111111 0.015384615384615385 0.0
0.0011111111111111111 0.016923076923076923 0.0
0.0011111111111111111 0.01846153846153846 0.0
0.0011111111111111111 0.02 0.0
0.0011111111111111111 0.020555555555555556 0.0
0.0011111111111111111 0.021111111111111112 0.0
0.0011111111111111111 0.021666666666666667 0.0
0.0011111111111111111 0.022222222222222223 0.0
0.0011111111111111111 0.02277777777777778 0.0
0.0011111111111111111 0.023333333333333334 0.0
0.0011111111111111111 0.02388888888888889 0.0
0.0011111111111111111 0.024444444444444446 0.0
0.0011111111111111111 0.025 0.0
0.0011111111111111111 0.036111111111111115 0.0
0.0011111111111111111 0.04722222222222222 0.0
0.0011111111111111111 0.058333333333333334 0.0
0.0011111111111111111 0.06944444444444445 0.0
0.0011111111111111111 0.08055555555555556 0.0
0.0011111111111111111 0.09166666666666667 0.0
0.0011111111111111111 0.10277777777777777 0.0
0.0011111111111111111 0.1138888888888889 0.0
0.0011111111111111111 0.125 0.0
0.0011111111111111111 0.12555555555555556 0.0
0.0011111111111111111 0.12611111111111112 0.0
0.0011111111111111111 0.12666666666666668 0.0
0.0011111111111111111 0.1272222222222222 0.0
0.0011111111111111111 0.12777777777777777 0.0
0.0011111111111111111 0.12833333333333333 0.0
0.0011111111111111111 0.1288888888888889 0.0
0.0011111111111111111 0.12944444444444445 0.0
0.0011111111111111111 0.13 0.0
0.0016666666666666666 0.0 0.0
0.0016666666666666666 0.0015384615384615385 0.0
0.0016666666666666666 0.003076923076923077 0.0
0.0016666666666666666 0.004615384615384615 0.0
0.0016666666666666666 0.006153846153846154 0.0
0.0016666666666666666 0.007692307692307693 0.0
0.0016666666666666666 0.00923076923076923 0.0
0.0016666666666666666 0.010769230769230769 0.0
0.0016666666666666666 0.012307692307692308 0.0
0.0016666666666666666 0.013846153846153847 0.0
0.0016666666666666666 0.015384615384615385 0.0
0.0016666666666666666 0.016923076923076923 0.0
0.0016666666666666666 0.01846153846153846 0.0
0.0016666666666666666 0.02 0.0
0.0016666666666666666 0.020555555555555556 0.0
0.0016666666666666666 0.021111111111111112 0.0
0.0016666666666666666 0.021666666666666667 0.0
0.0016666666666666666 0.022222222222222223 0.0
0.0016666666666666666 0.02277777777777778 0.0
0.0016666666666666666 0.023333333333333334 0.0
0.0016666666666666666 0.02388888888888889 0.0
0.0016666666666666666 0.024444444444444446 0.0
0.0016666666666666666 0.025 0.0
0.0016666666666666666 0.036111111111111115 0.0
0.0016666666666666666 0.04722222222222222 0.0
0.0016666666666666666 0.058333333333333334 0.0
0.0016666666666666666 0.06944444444444445 0.0
0.0016666666666666666 0.08055555555555556 0.0
0.0016666666666666666 0.09166666666666667 0.0
0.0016666666666666666 0.10277777777777777 0.0
0.0016666666666666666 0.1138888888888889 0.0
0.0016666666666666666 0.125 0.0
0.0016666666666666666 0.12555555555555556 0.0
0.0016666666666666666 0.12611111111111112 0.0
0.0016666666666666666 0.12666666666666668 0.0
0.0016666666666666666 0.1272222222222222 0.0
0.0016666666666666666 0.12777777777777777 0.0
0.0016666666666666666 0.12833333333333333 0.0
0.0016666666666666666 0.1288888888888889 0.0
0.0016666666666666666 0.12944444444444445 0.0
0.0016666666666666666 0.13 0.0
0.0022222222222222222 0.0 0.0
0.0022222222222222222 0.0015384615384615385 0.0
0.0022222222222222222 0.003076923076923077 0.0
0.0022222222222222222 0.004615384615384615 0.0
0.0022222222222222222 0.006153846153846154 0.0
0.0022222222222222222 0.007692307692307693 0.0
0.0022222222222222222 0.00923076923076923 0.0
0.0022222222222222222 0.010769230769230769 0.0
0.0022222222222222222 0.012307692307692308 0.0
0.0022222222222222222 0.013846153846153847 0.0
0.0022222222222222222 0.015384615384615385 0.0
0.0022222222222222222 0.016923076923076923 0.0
0.0022222222222222222 0.01846153846153846 0.0
0.0022222222222222222 0.02 0.0
0.0022222222222222222 0.020555555555555556 0.0
0.0022222222222222222 0.021111111111111112 0.0
0.0022222222222222222 0.021666666666666667 0.0
0.0022222222222222222 0.022222222222222223 0.0
0.0022222222222222222 0.02277777777777778 0.0
0.0022222222222222222 0.023333333333333334 0.0
0.0022222222222222222 0.02388888888888889 0.0
0.0022222222222222222 0.024444444444444446 0.0
0.0022222222222222222 0.025 0.0
0.0022222222222222222 0.036111111111111115 0.0
0.0022222222222222222 0.04722222222222222 0.0
0.0022222222222222222 0.058333333333333334 0.0
0.0022222222222222222 0.06944444444444445 0.0
0.0022222222222222222 0.08055555555555556 0.0
0.0022222222222222222 0.09166666666666667 0.0
0.0022222222222222222 0.10277777777777777 0.0
0.0022222222222222222 0.1138888888888889 0.0
0.0022222222222222222 0.125 0.0
0.0022222222222222222 0.12555555555555556 0.0
0.0022222222222222222 0.12611111111111112 0.0
0.0022222222222222222 0.12666666666666668 0.0
0.0022222222222222222 0.1272222222222222 0.0
0.0022222222222222222 0.12777777777777777 0.0
0.0022222222222222222 0.12833333333333333 0.0
0.0022222222222222222 0.1288888888888889 0.0
0.0022222222222222222 0.12944444444444445 0.0
0.0022222222222222222 0.13 0.0
0.002777777777777778 0.0 0.0
0.002777777777777778 0.0015384615384615385 0.0
0.002777777777777778 0.003076923076923077 0.0
0.002777777777777778 0.004615384615384615 0.0
0.002777777777777778 0.006153846153846154 0.0
0.002777777777777778 0.007692307692307693 0.0
0.002777777777777778 0.00923076923076923 0.0
0.002777777777777778 0.010769230769230769 0.0
0.002777777777777778 0.012307692307692308 0.0
0.002777777777777778 0.013846153846153847 0.0
0.002777777777777778 0.015384615384615385 0.0
0.002777777777777778 0.016923076923076923 0.0
0.002777777777777778 0.01846153846153846 0.0
0.002777777777777778 0.02 0.0
0.002777777777777778 0.020555555555555556 0.0
0.002777777777777778 0.021111111111111112 0.0
0.002777777777777778 0.021666666666666667 0.0
0.002777777777777778 0.022222222222222223 0.0
0.002777777777777778 0.02277777777777778 0.0
0.002777777777777778 0.023333333333333334 0.0
0.002777777777777778 0.02388888888888889 0.0
0.002777777777777778 0.024444444444444446 0.0
0.002777777777777778 0.025 0.0
0.002777777777777778 0.036111111111111115 0.0
0.002777777777777778 0.04722222222222222 0.0
0.002777777777777778 0.058333333333333334 0.0
0.002777777777777778 0.06944444444444445 0.0
0.002777777777777778 0.08055555555555556 0.0
0.002777777777777778 0.09166666666666667 0.0
0.002777777777777778 0.10277777777777777 0.0
0.002777777777777778 0.1138888888888889 0.0
0.002777777777777778 0.125 0.0
0.002777777777777778 0.12555555555555556 0.0
0.002777777777777778 0.12611111111111112 0.0
[...]
POINT_DATA 1353
SCALARS Temperatura float 1
LOOKUP_TABLE default
44.587100584617
44.01803807230652
43.45996349158163
42.912542796239485
42.375502389259836
41.84852757046409
41.33123420153245
40.82313866557643
40.323622356214784
39.83187578225687
39.346832659767394
38.866937947877766
38.39024837204409
37.9102441531113
37.30963432277371
36.72025601854889
36.13500331382532
35.552302375125066
34.971031341793484
34.390353274963346
33.80961285217447
33.2283342985933
32.64625309217268
22.469105398733326
18.81064229436603
17.752647682607687
17.401805167457475
17.29464105195454
17.256871587952006
17.234459068979415
17.182953096516307
17.054156727169914
17.04999854044922
17.046435853244795
17.043553840082893
17.04143279140348
17.04014460813775
17.039750171220252
17.040297630020362
17.041821454800985
17.044342008536468
44.59443894871906
44.02525335934613
43.46702841874345
42.91946223236075
42.38228126502315
41.855173141576365
41.337755265708196
40.82954636597718
40.32993003570993
39.83810548871071
39.352996918873984
38.873150541802474
38.39626032665648
37.91835017402848
37.32592937193272
36.737022576906206
36.15191360046946
35.569119318456615
34.98764977801886
34.40669231105394
33.82558766215134
33.24384075695148
32.66116127865536
22.46093698838609
18.808883659431476
17.750594633479878
17.400004324605025
17.29288182439009
17.255128831535743
17.23270842080075
17.18134214415249
17.051927782738343
17.047720320050963
17.044109403992927
17.04118243485266
17.039021593589975
17.037700174745336
17.03727994617203
17.03780953491267
17.039323619012418
17.041842626507833
44.60185110552047
44.03259917808862
43.474259863827385
42.92658166146814
42.38929869328414
41.8621040454694
41.34462040078195
40.83637300934182
40.33675531742114
39.84497978655998
39.360001065273025
38.880400975862365
38.40401594486724
37.928373574971
37.3397827172391
36.753600886943566
36.16980442845592
35.58785855655819
35.00696410123175
34.42636355706711
33.84537542365584
33.263440343049616
32.680183719957085
22.43122305930833
18.806115613902282
17.749011293180704
17.3999235484019
17.293136305190654
17.25551270868928
17.23311199617673
17.18227444457061
17.05126813795648
17.04691897991755
17.043168351450543
17.040110486829708
17.037833236409995
17.036413917009245
17.035916708852493
17.03639141484319
17.03787312943048
17.04038234739897
44.60936708682713
44.04007725644617
43.481657831186624
42.933900215990505
42.396553117305494
41.86931810096208
41.35182653180204
40.843614595281466
40.3440913472215
39.85249303405366
39.367817247585705
38.888709051424605
38.41330108773457
37.93978587063363
37.35427274729252
36.770762772797205
36.18907098652197
35.60875409492004
35.029174138258114
34.449596923827976
33.86927699724556
33.28752578337127
32.70380314405604
22.379502274541096
18.80256899384476
17.747835841516526
17.401587015675737
17.295401441168877
17.258028553303923
17.23566761624431
17.185760313907423
17.052185473029322
17.047594712366237
17.043605678370714
17.040325141755524
17.037850875059643
17.03626672537978
17.035640345809682
17.036022878712906
17.037449611956912
17.039940845579903
44.617003231436485
44.04769236131168
43.4892219631318
42.941416368245534
42.40404191577781
41.87681161345296
41.359368610212144
40.851264074144645
40.35192826690909
39.860630233972145
39.37642060178351
38.89804398648974
38.423909529575326
37.952507207301224
37.36995482423124
36.78925660778253
36.21011846498959
35.63208760921958
35.054545161835556
34.47672802664699
33.897766163359655
33.316750141502794
32.732851829653725
22.305003453084137
18.79863871387766
17.746960528127786
17.405035588843095
17.299670125542836
17.26268405730675
17.24037009704544
17.191814967986044
17.054692854159175
17.049746384311216
17.04540696031287
17.0418018076835
17.039043566920935
17.037224547219157
17.036415814606208
17.036668939078545
17.038018412732242
17.040483647429436
44.624769178077855
44.05544875206377
43.49695181538161
42.94912782821431
42.411761412193336
41.88457943149541
41.3672396108643
40.859311747247276
40.36025245074374
39.86937076968045
39.3857809249659
38.90834548188047
38.43569891888092
37.9664912193123
37.3870246316966
36.809386121203225
36.23322886691345
35.65808405989539
35.083324280005876
34.50812605474157
33.931441992490576
33.35202332455908
32.76856304631505
22.206618531449024
18.794898542443324
17.74622484041572
17.410329522704956
17.305930186912995
17.26948965370911
17.247211148073994
17.20045804177905
17.058811097102566
17.053370225232957
17.04854658418003
17.044499871110332
17.041362880861083
17.03923633405612
17.038192221284724
17.038279847687523
17.03953084393352
17.041962504553158
44.63267065470634
44.06334929611766
43.50484652520109
42.95703154706672
42.41970687652801
41.892614998138036
41.375430635499825
40.867745425469955
40.369046743023446
39.878689578338935
39.39586034851341
38.91954443222977
38.4485605359233
37.98168108478391
37.405524643511185
36.83125002057086
36.25850443574761
35.68683477188873
35.11563649742992
34.544074944384754
33.97092832195844
33.39448869400101
32.81265754419318
22.082860126707686
18.792123395462607
17.745405310033807
17.41755250270387
17.31416288021312
17.278459069751285
17.256179295006522
17.211712640169416
17.064573040719395
17.058455759407778
17.052979302479
17.048354675778043
17.044737808182674
17.042231543551512
17.04090208446394
17.040791348269014
17.041924914988986
17.04431626495755
44.64071074863966
44.0713953512076
43.512904531902976
42.96512368998554
42.42787254434146
41.900910414787994
41.383931037148265
40.87655060941975
40.3782908951636
39.888557556616
39.40661494377462
38.931569955622415
38.46240021207178
37.99800224407102
37.42541036491494
36.85481228208542
36.28588932423532
35.718248955282995
35.151377837862064
34.58455307857055
34.01665813189165
33.445420259662455
32.8674885834092
21.93179647817202
18.79132154102498
17.744201102520414
17.42681733107885
17.32434077023334
17.289610055724125
17.267259954156593
17.225603409617193
17.072031545949393
17.064972733587
17.058619666449548
17.05326506242962
17.049068611411087
17.04611828540119
17.04446154740242
17.04412581631454
17.045126848900715
17.047472488079322
44.64889057539026
44.07958685776087
43.52112342451913
42.97339960086243
42.43625164644259
41.909456518749174
41.39272855758911
40.885710719325424
40.387961977786794
39.89894211298018
39.4179966090664
38.944350982729276
38.477128630049314
38.01536318525755
37.44657787159254
36.87993863929729
36.31519050827458
35.75204172974403
35.19014120548716
34.629032830166175
34.06803150141331
33.50610600336132
32.93628621638244
21.750951394749187
18.79378070563461
17.742214015975136
17.438273746997506
17.336424862546114
17.302965222437734
17.280436123425243
17.242151865567994
17.081277611495892
17.072800575031604
17.065310680138133
17.059076790208724
17.05422334209266
17.050784095366794
17.048772515523318
17.0481947394077
17.049053606038612
17.051349961144126
44.65720968561937
44.087922479389
43.529499883383295
42.98185378049389
42.4448364468758
41.91824297208183
41.40180947958674
40.895207348896946
40.39803478929017
39.90980785051252
39.429954443096385
38.957816181449246
38.49265691674387
38.03365896999063
37.4688834275063
36.9064272418073
36.346112785853485
35.78776779806771
35.2312388230265
34.676419421748854
34.12330961163711
33.5721344538066
18.460774141329182
18.460774141329182
18.460774141329182
18.460774141329182
18.460774141329182
18.460774141329182
18.460774141329182
18.460774141329182
18.460774141329182
18.460774141329182
17.081674461454842
17.072762337765308
17.06558038807981
17.06004283057414
17.056101506385755
17.053727425454333
17.0529027249507
17.05361642035049
17.05586207761265
44.835272988620844
44.26675623791459
43.71039422178762
43.16622461315167
42.634306961987114
42.114729386611
41.60761988641833
41.113163230751624
40.63162472093384
40.16338270101091
39.70897224265484
39.26914327510441
38.84493960542785
38.43781269123829
37.94629180175225
37.45945386779106
36.977692076462695
36.50142175739789
36.03108292481879
35.56713917639276
35.11006841694294
34.6603375624762
18.460774141329182
18.460774141329182
18.460774141329182
18.460774141329182
18.460774141329182
18.460774141329182
18.460774141329182
18.460774141329182
18.460774141329182
18.460774141329182
17.248808791787617
17.23188805121642
17.217690409812754
17.20618724534503
17.19734788708063
17.19114435762253
17.187553281105693
17.18655679462108
17.18814299380227
45.01180620855463
44.44385277393224
43.88888713330653
43.346937690205664
42.81804452342047
42.302258658774434
41.799640228619836
41.31025480419162
40.83416677051935
40.37142798466104
39.92205910444432
39.48601969498582
39.063160776032376
38.65314895304683
38.15392424516596
37.65799682567075
37.16520559287245
36.67537218816609
36.18829658741065
35.70375328300491
35.22148922454907
34.74122563177478
18.460774141329182
18.460774141329182
18.460774141329182
18.460774141329182
18.460774141329182
18.460774141329182
18.460774141329182
18.460774141329182
18.460774141329182
18.460774141329182
17.2868646517675
17.27350918782641
17.2622699202827
17.253164485832162
17.246208368836015
17.24141397756847
17.238790429685885
17.23834354276241
17.240075883767297
45.15289145698027
44.585087894843774
44.03033116586797
43.48862492990354
42.95996740388811
42.444350372482084
41.94175793888528
41.452165167740475
40.97553693452751
40.51182758038734
40.0609824284443
39.622942976233965
39.19765896259144
38.785112992960315
38.28297249391908
37.78435932820223
37.28928486443331
36.79776698433268
36.30983245748058
35.82551936699498
35.34487932030424
34.86797891532367
18.460774141329182
18.460774141329182
18.460774141329182
18.460774141329182
18.460774141329182
18.460774141329182
18.460774141329182
18.460774141329182
18.460774141329182
18.460774141329182
17.301151898282473
17.28749447490617
17.276058664963944
17.266833902011786
17.25981097010834
17.25498209448436
17.2523408719687
17.251882176614686
17.25360207850532
45.25350168475288
44.685726476684124
44.130887813505176
43.5889862284055
43.06001558888271
42.54396323391885
42.040810193153916
41.550531505616874
41.0730966234182
40.60846980884519
40.15661028120874
39.71747157748956
39.290999015059526
38.87712305020074
38.37317559282786
37.87268810063471
37.375626708165335
36.88195468659737
36.39163149762754
35.90461175140258
35.42084411608144
34.94027029768613
18.460774141329182
18.460774141329182
18.460774141329182
18.460774141329182
18.460774141329182
18.460774141329182
18.460774141329182
18.460774141329182
18.460774141329182
18.460774141329182
17.30488410669304
17.29145742242563
17.2801979528185
17.271105383008102
17.26417898576763
17.259417651433257
17.25681994880213
17.25638418167525
17.25810843198674
45.31967681456148
44.75191402444369
44.19700358546633
43.654946226800405
43.125736106821975
42.609360813424125
42.10580135262981
41.61503211102482
41.13702078009827
40.67172824474345
40.21910847613106
39.77910855762398
39.35166916965741
38.936726270291814
38.43140120385878
37.92954040950795
37.431121155738595
36.936121063282144
36.444518460376976
35.956292793340616
35.47142508940405
34.98989845054529
18.460774141329182
18.460774141329182
18.460774141329182
18.460774141329182
18.460774141329182
18.460774141329182
18.460774141329182
18.460774141329182
18.460774141329182
18.460774141329182
17.306111921424417
17.292678362384308
17.281420441506363
17.272334274700704
17.265416301147816
17.260663258026018
17.25807215114892
17.257640230395793
17.25936497180392
45.35711244333188
44.78935589169209
44.23440241717656
43.692252659206396
43.162900659408606
42.64633387754333
42.14253322024615
41.651473088116646
41.1731214481434
40.70743993776213
40.25438399985799
39.81390302472705
39.385940412244544
38.97043331956822
38.4643802089249
37.96178665213654
37.46262739857223
36.96687652323333
36.47450731591879
35.98549214384183
35.49980228437659
35.017407729109756
18.460774141329182
18.460774141329182
18.460774141329182
18.460774141329182
18.460774141329182
18.460774141329182
18.460774141329182
18.460774141329182
18.460774141329182
18.460774141329182
17.306440445743867
17.293022659536135
17.281776106443345
17.272697996931708
17.265785601946707
17.261036266566347
17.258447423054644
17.258016601107098
17.259741435026523
45.36921662102214
44.801461956859825
44.24649419571708
43.70431400072543
43.174915467422004
42.65828614600263
42.154407072987
41.663252809558045
41.18479148233423
40.71898482123658
40.265788190533584
39.825150618774984
39.397014865162035
38.9813176434119
38.475017792901966
37.97217683524779
37.47277023751223
36.97677317530324
36.48416061508321
35.994907414729546
35.508988445927436
35.026378740137055
18.460774141329182
18.460774141329182
18.460774141329182
18.460774141329182
18.460774141329182
18.460774141329182
18.460774141329182
18.460774141329182
18.460774141329182
18.460774141329182
17.306514890988982
17.293096313097557
17.28184990055866
17.272772440429293
17.265860894017713
17.261112387986955
17.258524206376197
17.258093784478163
17.259818704571334
45.35711244333212
44.78935589169233
44.234402417176796
43.69225265920662
43.16290065940879
42.64633387754347
42.14253322024628
41.651473088116795
41.173121448143576
40.70743993776232
40.254383999858184
39.813903024727246
39.38594041224475
38.970433319568436
38.46438020892512
37.96178665213675
37.462627398572444
36.96687652323352
36.474507315918984
35.98549214384202
35.49980228437679
35.017407729109976
18.460774141329182
18.460774141329182
18.460774141329182
18.460774141329182
18.460774141329182
18.460774141329182
18.460774141329182
18.460774141329182
18.460774141329182
18.460774141329182
17.306440445744013
17.29302265953629
17.281776106443505
17.272697996931868
17.26578560194687
17.26103626656652
17.258447423054818
17.258016601107272
17.259741435026694
45.31967681456183
44.75191402444405
44.197003585466675
43.65494622680073
43.125736106822295
42.609360813424445
42.10580135263012
41.61503211102512
41.13702078009855
40.67172824474373
40.219108476131346
39.77910855762427
39.351669169657704
38.93672627029212
38.431401203859096
37.92954040950825
37.43112115573889
36.936121063282435
36.44451846037726
35.95629279334091
35.47142508940434
34.98989845054555
18.460774141329182
18.460774141329182
18.460774141329182
18.460774141329182
18.460774141329182
18.460774141329182
18.460774141329182
18.460774141329182
18.460774141329182
18.460774141329182
17.306111921424815
17.292678362384706
17.28142044150677
17.272334274701123
17.265416301148235
17.26066325802643
17.258072151149335
17.257640230396213
17.259364971804338
45.253501684753104
44.68572647668433
44.130887813505375
43.58898622840569
43.0600155888829
42.54396323391903
42.04081019315409
41.55053150561703
41.07309662341836
40.60846980884535
40.15661028120893
39.717471577489746
39.290999015059725
38.877123050200936
38.37317559282808
37.87268810063493
37.375626708165555
36.88195468659757
36.39163149762771
35.90461175140271
35.42084411608156
34.940270297686254
18.460774141329182
18.460774141329182
18.460774141329182
18.460774141329182
18.460774141329182
18.460774141329182
18.460774141329182
18.460774141329182
18.460774141329182
18.460774141329182
17.304884106694026
17.291457422426642
17.280197952819528
17.271105383009132
17.264178985768655
17.25941765143427
17.256819948803116
17.256384181676214
17.258108431987697
45.152891456980434
44.58508789484395
44.030331165868155
43.48862492990374
42.95996740388831
42.44435037248229
41.94175793888549
41.45216516774069
40.97553693452774
40.51182758038755
40.060982428444504
39.622942976234164
39.19765896259162
38.785112992960485
38.282972493919246
37.78435932820236
37.289284864433455
36.797766984332846
36.309832457480795
35.82551936699522
35.344879320304486
34.86797891532391
18.460774141329182
18.460774141329182
18.460774141329182
18.460774141329182
18.460774141329182
18.460774141329182
18.460774141329182
18.460774141329182
18.460774141329182
18.460774141329182
17.301151898283255
17.287494474906964
17.276058664964758
17.266833902012618
17.259810970109186
17.25498209448522
17.252340871969572
17.251882176615574
17.253602078506212
45.01180620855449
44.44385277393209
43.88888713330637
43.34693769020548
42.818044523420284
42.30225865877427
41.79964022861967
41.31025480419145
40.83416677051919
40.37142798466091
39.92205910444424
39.48601969498576
39.06316077603231
38.653148953046774
38.15392424516591
37.657996825670715
37.16520559287241
36.675372188166065
36.18829658741061
35.703753283004865
35.22148922454901
34.741225631774704
18.460774141329182
18.460774141329182
18.460774141329182
18.460774141329182
18.460774141329182
18.460774141329182
18.460774141329182
18.460774141329182
18.460774141329182
18.460774141329182
17.2868646517681
17.273509187827013
17.26226992028331
17.253164485832766
17.246208368836616
17.24141397756907
17.238790429686475
17.23834354276299
17.240075883767876
44.83527298862048
44.266756237914244
43.71039422178726
43.16622461315133
42.634306961986766
42.11472938661067
41.607619886418014
41.11316323075133
40.63162472093357
40.16338270101067
39.70897224265464
39.26914327510425
38.84493960542768
38.43781269123814
37.94629180175211
37.45945386779092
36.97769207646257
36.501421757397765
36.03108292481867
35.56713917639262
35.11006841694279
34.66033756247605
18.460774141329182
18.460774141329182
18.460774141329182
18.460774141329182
18.460774141329182
18.460774141329182
18.460774141329182
18.460774141329182
18.460774141329182
18.460774141329182
17.248808791788
17.23188805121681
17.21769040981316
17.206187245345447
17.197347887081047
17.191144357622953
17.18755328110612
17.18655679462152
17.18814299380271
44.65720968561891
44.08792247938853
43.52949988338289
42.98185378049353
42.44483644687553
41.918242972081615
41.40180947958655
40.89520734889675
40.39803478928999
39.90980785051232
39.42995444309616
38.957816181449026
38.49265691674369
38.03365896999046
37.46888342750618
36.906427241807236
36.34611278585347
35.78776779806776
35.23123882302658
34.676419421748975
34.12330961163726
33.572134453806754
18.460774141329182
18.460774141329182
18.460774141329182
18.460774141329182
18.460774141329182
18.460774141329182
18.460774141329182
18.460774141329182
18.460774141329182
18.460774141329182
17.0816744614553
17.072762337765784
17.065580388080285
17.06004283057462
17.056101506386245
17.053727425454824
17.052902724951185
17.053616420350956
17.055862077613117
44.64889057538978
44.079586857760354
43.52112342451873
42.973399600862074
42.43625164644234
41.90945651874893
41.39272855758892
40.88571071932524
40.38796197778659
39.89894211297998
39.41799660906615
38.944350982729
38.47712863004911
38.015363185257385
37.44657787159241
36.87993863929722
36.31519050827459
35.75204172974404
35.190141205487244
34.62903283016631
34.06803150141343
33.506106003361474
32.9362862163826
21.75095139474977
18.793780705634635
17.742214015975108
17.43827374699782
17.336424862546263
17.302965222437887
17.280436123425414
17.242151865567752
17.081277611496336
17.07280057503207
17.065310680138605
17.059076790209197
17.05422334209314
17.050784095367273
17.04877251552378
17.048194739408157
17.049053606039074
17.05134996114458
44.64071074863913
44.071395351207116
43.512904531902564
42.96512368998521
42.4278725443412
41.90091041478775
41.38393103714807
40.876550609419574
40.3782908951634
39.888557556615794
39.40661494377436
38.93156995562214
38.46240021207157
37.99800224407086
37.42541036491482
36.854812282085355
36.285889324235306
35.71824895528304
35.151377837862135
34.58455307857067
34.016658131891795
33.44542025966262
32.86748858340937
21.931796478172636
18.791321541025017
17.74420110252043
17.426817331079164
17.32434077023349
17.289610055724303
17.267259954156753
17.22560340961695
17.072031545949844
17.064972733587457
17.058619666450017
17.053265062430086
17.04906861141155
17.04611828540165
17.044461547402868
17.04412581631498
17.045126848901166
17.047472488079773
44.6326706547058
44.06334929611719
43.50484652520065
42.957031547066364
42.41970687652775
41.89261499813778
41.375430635499605
40.867745425469735
40.36904674302323
39.87868957833871
39.395860348513146
38.91954443222952
38.448560535923086
37.981681084783744