# vtk DataFile Version 2.0
Niestacjonarne zagadnienie cieplne - ogrzewanie wody w garnku stalowym
ASCII
DATASET UNSTRUCTURED_GRID
POINTS 1353 float
0.0 0.0 0.0
0.0 0.0015384615384615385 0.0
0.0 0.003076923076923077 0.0
0.0 0.004615384615384615 0.0
0.0 0.006153846153846154 0.0
0.0 0.007692307692307693 0.0
0.0 0.00923076923076923 0.0
0.0 0.010769230769230769 0.0
0.0 0.012307692307692308 0.0
0.0 0.013846153846153847 0.0
0.0 0.015384615384615385 0.0
0.0 0.016923076923076923 0.0
0.0 0.01846153846153846 0.0
0.0 0.02 0.0
0.0 0.020555555555555556 0.0
0.0 0.021111111111111112 0.0
0.0 0.021666666666666667 0.0
0.0 0.022222222222222223 0.0
0.0 0.02277777777777778 0.0
0.0 0.023333333333333334 0.0
0.0 0.02388888888888889 0.0
0.0 0.024444444444444446 0.0
0.0 0.025 0.0
0.0 0.036111111111111115 0.0
0.0 0.04722222222222222 0.0
0.0 0.058333333333333334 0.0
0.0 0.06944444444444445 0.0
0.0 0.08055555555555556 0.0
0.0 0.09166666666666667 0.0
0.0 0.10277777777777777 0.0
0.0 0.1138888888888889 0.0
0.0 0.125 0.0
0.0 0.12555555555555556 0.0
0.0 0.12611111111111112 0.0
0.0 0.12666666666666668 0.0
0.0 0.1272222222222222 0.0
0.0 0.12777777777777777 0.0
0.0 0.12833333333333333 0.0
0.0 0.1288888888888889 0.0
0.0 0.12944444444444445 0.0
0.0 0.13 0.0
5.555555555555556E-4 0.0 0.0
5.555555555555556E-4 0.0015384615384615385 0.0
5.555555555555556E-4 0.003076923076923077 0.0
5.555555555555556E-4 0.004615384615384615 0.0
5.555555555555556E-4 0.006153846153846154 0.0
5.555555555555556E-4 0.007692307692307693 0.0
5.555555555555556E-4 0.00923076923076923 0.0
5.555555555555556E-4 0.010769230769230769 0.0
5.555555555555556E-4 0.012307692307692308 0.0
5.555555555555556E-4 0.013846153846153847 0.0
5.555555555555556E-4 0.015384615384615385 0.0
5.555555555555556E-4 0.016923076923076923 0.0
5.555555555555556E-4 0.01846153846153846 0.0
5.555555555555556E-4 0.02 0.0
5.555555555555556E-4 0.020555555555555556 0.0
5.555555555555556E-4 0.021111111111111112 0.0
5.555555555555556E-4 0.021666666666666667 0.0
5.555555555555556E-4 0.022222222222222223 0.0
5.555555555555556E-4 0.02277777777777778 0.0
5.555555555555556E-4 0.023333333333333334 0.0
5.555555555555556E-4 0.02388888888888889 0.0
5.555555555555556E-4 0.024444444444444446 0.0
5.555555555555556E-4 0.025 0.0
5.555555555555556E-4 0.036111111111111115 0.0
5.555555555555556E-4 0.04722222222222222 0.0
5.555555555555556E-4 0.058333333333333334 0.0
5.555555555555556E-4 0.06944444444444445 0.0
5.555555555555556E-4 0.08055555555555556 0.0
5.555555555555556E-4 0.09166666666666667 0.0
5.555555555555556E-4 0.10277777777777777 0.0
5.555555555555556E-4 0.1138888888888889 0.0
5.555555555555556E-4 0.125 0.0
5.555555555555556E-4 0.12555555555555556 0.0
5.555555555555556E-4 0.12611111111111112 0.0
5.555555555555556E-4 0.12666666666666668 0.0
5.555555555555556E-4 0.1272222222222222 0.0
5.555555555555556E-4 0.12777777777777777 0.0
5.555555555555556E-4 0.12833333333333333 0.0
5.555555555555556E-4 0.1288888888888889 0.0
5.555555555555556E-4 0.12944444444444445 0.0
5.555555555555556E-4 0.13 0.0
0.0011111111111111111 0.0 0.0
0.0011111111111111111 0.0015384615384615385 0.0
0.0011111111111111111 0.003076923076923077 0.0
0.0011111111111111111 0.004615384615384615 0.0
0.0011111111111111111 0.006153846153846154 0.0
0.0011111111111111111 0.007692307692307693 0.0
0.0011111111111111111 0.00923076923076923 0.0
0.0011111111111111111 0.010769230769230769 0.0
0.0011111111111111111 0.012307692307692308 0.0
0.0011111111111111111 0.013846153846153847 0.0
0.0011111111111111111 0.015384615384615385 0.0
0.0011111111111111111 0.016923076923076923 0.0
0.0011111111111111111 0.01846153846153846 0.0
0.0011111111111111111 0.02 0.0
0.0011111111111111111 0.020555555555555556 0.0
0.0011111111111111111 0.021111111111111112 0.0
0.0011111111111111111 0.021666666666666667 0.0
0.0011111111111111111 0.022222222222222223 0.0
0.0011111111111111111 0.02277777777777778 0.0
0.0011111111111111111 0.023333333333333334 0.0
0.0011111111111111111 0.02388888888888889 0.0
0.0011111111111111111 0.024444444444444446 0.0
0.0011111111111111111 0.025 0.0
0.0011111111111111111 0.036111111111111115 0.0
0.0011111111111111111 0.04722222222222222 0.0
0.0011111111111111111 0.058333333333333334 0.0
0.0011111111111111111 0.06944444444444445 0.0
0.0011111111111111111 0.08055555555555556 0.0
0.0011111111111111111 0.09166666666666667 0.0
0.0011111111111111111 0.10277777777777777 0.0
0.0011111111111111111 0.1138888888888889 0.0
0.0011111111111111111 0.125 0.0
0.0011111111111111111 0.12555555555555556 0.0
0.0011111111111111111 0.12611111111111112 0.0
0.0011111111111111111 0.12666666666666668 0.0
0.0011111111111111111 0.1272222222222222 0.0
0.0011111111111111111 0.12777777777777777 0.0
0.0011111111111111111 0.12833333333333333 0.0
0.0011111111111111111 0.1288888888888889 0.0
0.0011111111111111111 0.12944444444444445 0.0
0.0011111111111111111 0.13 0.0
0.0016666666666666666 0.0 0.0
0.0016666666666666666 0.0015384615384615385 0.0
0.0016666666666666666 0.003076923076923077 0.0
0.0016666666666666666 0.004615384615384615 0.0
0.0016666666666666666 0.006153846153846154 0.0
0.0016666666666666666 0.007692307692307693 0.0
0.0016666666666666666 0.00923076923076923 0.0
0.0016666666666666666 0.010769230769230769 0.0
0.0016666666666666666 0.012307692307692308 0.0
0.0016666666666666666 0.013846153846153847 0.0
0.0016666666666666666 0.015384615384615385 0.0
0.0016666666666666666 0.016923076923076923 0.0
0.0016666666666666666 0.01846153846153846 0.0
0.0016666666666666666 0.02 0.0
0.0016666666666666666 0.020555555555555556 0.0
0.0016666666666666666 0.021111111111111112 0.0
0.0016666666666666666 0.021666666666666667 0.0
0.0016666666666666666 0.022222222222222223 0.0
0.0016666666666666666 0.02277777777777778 0.0
0.0016666666666666666 0.023333333333333334 0.0
0.0016666666666666666 0.02388888888888889 0.0
0.0016666666666666666 0.024444444444444446 0.0
0.0016666666666666666 0.025 0.0
0.0016666666666666666 0.036111111111111115 0.0
0.0016666666666666666 0.04722222222222222 0.0
0.0016666666666666666 0.058333333333333334 0.0
0.0016666666666666666 0.06944444444444445 0.0
0.0016666666666666666 0.08055555555555556 0.0
0.0016666666666666666 0.09166666666666667 0.0
0.0016666666666666666 0.10277777777777777 0.0
0.0016666666666666666 0.1138888888888889 0.0
0.0016666666666666666 0.125 0.0
0.0016666666666666666 0.12555555555555556 0.0
0.0016666666666666666 0.12611111111111112 0.0
0.0016666666666666666 0.12666666666666668 0.0
0.0016666666666666666 0.1272222222222222 0.0
0.0016666666666666666 0.12777777777777777 0.0
0.0016666666666666666 0.12833333333333333 0.0
0.0016666666666666666 0.1288888888888889 0.0
0.0016666666666666666 0.12944444444444445 0.0
0.0016666666666666666 0.13 0.0
0.0022222222222222222 0.0 0.0
0.0022222222222222222 0.0015384615384615385 0.0
0.0022222222222222222 0.003076923076923077 0.0
0.0022222222222222222 0.004615384615384615 0.0
0.0022222222222222222 0.006153846153846154 0.0
0.0022222222222222222 0.007692307692307693 0.0
0.0022222222222222222 0.00923076923076923 0.0
0.0022222222222222222 0.010769230769230769 0.0
0.0022222222222222222 0.012307692307692308 0.0
0.0022222222222222222 0.013846153846153847 0.0
0.0022222222222222222 0.015384615384615385 0.0
0.0022222222222222222 0.016923076923076923 0.0
0.0022222222222222222 0.01846153846153846 0.0
0.0022222222222222222 0.02 0.0
0.0022222222222222222 0.020555555555555556 0.0
0.0022222222222222222 0.021111111111111112 0.0
0.0022222222222222222 0.021666666666666667 0.0
0.0022222222222222222 0.022222222222222223 0.0
0.0022222222222222222 0.02277777777777778 0.0
0.0022222222222222222 0.023333333333333334 0.0
0.0022222222222222222 0.02388888888888889 0.0
0.0022222222222222222 0.024444444444444446 0.0
0.0022222222222222222 0.025 0.0
0.0022222222222222222 0.036111111111111115 0.0
0.0022222222222222222 0.04722222222222222 0.0
0.0022222222222222222 0.058333333333333334 0.0
0.0022222222222222222 0.06944444444444445 0.0
0.0022222222222222222 0.08055555555555556 0.0
0.0022222222222222222 0.09166666666666667 0.0
0.0022222222222222222 0.10277777777777777 0.0
0.0022222222222222222 0.1138888888888889 0.0
0.0022222222222222222 0.125 0.0
0.0022222222222222222 0.12555555555555556 0.0
0.0022222222222222222 0.12611111111111112 0.0
0.0022222222222222222 0.12666666666666668 0.0
0.0022222222222222222 0.1272222222222222 0.0
0.0022222222222222222 0.12777777777777777 0.0
0.0022222222222222222 0.12833333333333333 0.0
0.0022222222222222222 0.1288888888888889 0.0
0.0022222222222222222 0.12944444444444445 0.0
0.0022222222222222222 0.13 0.0
0.002777777777777778 0.0 0.0
0.002777777777777778 0.0015384615384615385 0.0
0.002777777777777778 0.003076923076923077 0.0
0.002777777777777778 0.004615384615384615 0.0
0.002777777777777778 0.006153846153846154 0.0
0.002777777777777778 0.007692307692307693 0.0
0.002777777777777778 0.00923076923076923 0.0
0.002777777777777778 0.010769230769230769 0.0
0.002777777777777778 0.012307692307692308 0.0
0.002777777777777778 0.013846153846153847 0.0
0.002777777777777778 0.015384615384615385 0.0
0.002777777777777778 0.016923076923076923 0.0
0.002777777777777778 0.01846153846153846 0.0
0.002777777777777778 0.02 0.0
0.002777777777777778 0.020555555555555556 0.0
0.002777777777777778 0.021111111111111112 0.0
0.002777777777777778 0.021666666666666667 0.0
0.002777777777777778 0.022222222222222223 0.0
0.002777777777777778 0.02277777777777778 0.0
0.002777777777777778 0.023333333333333334 0.0
0.002777777777777778 0.02388888888888889 0.0
0.002777777777777778 0.024444444444444446 0.0
0.002777777777777778 0.025 0.0
0.002777777777777778 0.036111111111111115 0.0
0.002777777777777778 0.04722222222222222 0.0
0.002777777777777778 0.058333333333333334 0.0
0.002777777777777778 0.06944444444444445 0.0
0.002777777777777778 0.08055555555555556 0.0
0.002777777777777778 0.09166666666666667 0.0
0.002777777777777778 0.10277777777777777 0.0
0.002777777777777778 0.1138888888888889 0.0
0.002777777777777778 0.125 0.0
0.002777777777777778 0.12555555555555556 0.0
0.002777777777777778 0.12611111111111112 0.0
[...]
POINT_DATA 1353
SCALARS Temperatura float 1
LOOKUP_TABLE default
51.50292796858142
50.93829965379224
50.38212550787119
49.83406604008454
49.29383926141179
48.761117938054525
48.235499297261434
47.71647171733771
47.203374202368266
46.695329922796276
46.19116953801608
45.68913039438273
45.187021521594886
44.67645412444996
44.03312337795491
43.40403890743306
42.779616982849824
42.15789148860838
41.53751525778851
40.91752384815241
40.29718271866347
39.675969550693374
39.053599714480995
28.132739427335707
24.177167832134703
23.021069241608355
22.633815012678838
22.512986871742427
22.46687790651126
22.43151885615976
22.341245675797527
22.109693828906266
22.099880962859583
22.090711494004065
22.082277015162244
22.074662801828058
22.067944612545197
22.06218629060633
22.05743819944673
22.05373634940101
22.051101996036607
51.512333177664836
50.94758330376717
50.39125995710965
49.84305583778266
49.30268909026843
48.769834929424334
48.24409230174954
47.72495232287442
47.21175641455762
46.70363892942715
46.19941621797304
45.697463895856664
45.1950879923511
44.68741676438669
44.05546456762287
43.42712937547286
42.80300444895787
42.181249815456354
41.560703236490795
40.94043914766555
40.31972532168734
39.69802245415467
39.075020766105496
28.129479427985814
24.180792402009924
23.024390852742858
22.63741236405926
22.516631696912597
22.470543710977836
22.435175060634744
22.345108072003566
22.112695542887614
22.10282369325624
22.09359721106674
22.085109738127716
22.077448283255368
22.07068988303994
22.064899198504158
22.06012703947019
22.056409616151143
22.053768250638534
51.52182925777963
50.95701495865238
50.40057957969387
49.85226633348329
49.311801243299534
48.778865347076156
48.25306346549838
47.733894159941805
47.220710487308786
46.71266245392635
46.20860480992208
45.7069574612685
45.20521667293666
44.70059523738099
44.07384432201275
43.44918902597525
42.826796277972285
42.20613556999651
41.58631638073985
40.9665048768224
40.34596137666995
39.72408765543825
39.10049061885812
28.10289741689168
24.183204931352655
23.028156180564814
22.642827342635087
22.52242674263364
22.47649915889329
22.441170572134048
22.3519133405811
22.1173883315884
22.107357407967267
22.097976520589256
22.08934556122948
22.08155670359158
22.074690649115894
22.068814268957404
22.06397946731291
22.060222859218836
22.057565845942413
51.531446092865174
50.96659619363344
50.410084212028174
49.86169646409706
49.32117392122822
48.78820669973006
48.26240926151412
47.74329267250569
47.23022826006621
46.72239446657203
46.218699282280795
45.71764154849602
45.217116476581914
44.715252981174075
44.09250349308597
43.47128318278788
42.851535952739404
42.232861738558825
41.61460516354561
40.99598951638553
40.376226358945516
39.754592470192385
39.13052774460693
28.052499861238392
24.184652998458734
23.03229900909383
22.650085798767115
22.530368410125607
22.484750327457736
22.449500932106982
22.36167616602704
22.123776624192978
22.113479651553742
22.103840393217464
22.094970152275952
22.086970103498963
22.079926878914907
22.073910532029334
22.06897423338014
22.065154825189502
22.06247356740687
51.541199773247975
50.97633151900922
50.41977321472118
49.87134437391875
49.33080409973721
48.79785476767443
48.27212392819249
47.75313975124131
47.24029830151945
46.73281721361672
46.229669301956754
45.72947917911957
45.23050896004825
44.73128309255724
44.11221378740859
43.49445129182487
42.87778655865127
42.26180933079218
41.64590402406606
41.0292850834918
40.411047760353014
39.79024647457163
39.16602528769231
27.97746218435565
24.18556016127651
23.036703984035487
22.659231440998052
22.54044853077592
22.495306091629082
22.460156941677145
22.37441891179344
22.131867758368283
22.12118477519724
22.111171116384092
22.10195660198744
22.093655821452195
22.086363060362473
22.08015152428723
22.075074870103485
22.07116931332721
22.068455368395604
51.55109959060184
50.98622483591155
50.429645750598695
49.881207316558964
49.34068754255669
48.80780367573317
48.282199454238025
47.763424267565576
47.25090483156894
46.7439063244883
46.241478746540594
45.74239471905644
45.24520712486576
44.748632969466634
44.13326123592977
43.51913174414696
42.905955102190525
42.293295574686034
41.680532454783844
41.06682548244505
40.45109202093682
39.83203644634421
39.20830479158905
27.87660019729619
24.186541669050406
23.041199322094993
22.670328734743464
22.55265326225898
22.50817859301974
22.47312442223586
22.390171359716607
22.141673962363445
22.130462642242083
22.119938832789472
22.110261575493144
22.101563468783628
22.093946369063506
22.087484448310786
22.08222952299107
22.078215372153334
22.07546068068461
51.561150830053904
50.99627855485687
50.439700456552565
49.89128166338184
49.3508188110758
48.81804595570332
48.29262570603533
47.77413226811535
47.26202801127482
46.755632382511195
46.25408240329307
45.75630243456364
45.26107397507542
44.76724270302517
44.1557320312748
43.545496576206084
42.936223372524154
42.32748368163897
41.71867835395763
41.10895702687388
40.49705635072329
39.881200679936974
39.259206846678325
27.748325227619773
24.188428167776856
23.045545935245134
22.68346722616315
22.56696144097595
22.52338392078729
22.488383931984433
22.408970102622153
22.153215989469327
22.141294717832565
22.130093875654048
22.11981815427195
22.11062047996768
22.10260442206101
22.095839481093257
22.090371140984903
22.086227920489137
22.083425162133697
51.57135604385293
51.0064934818084
50.44993516863256
49.90156288254876
49.36119129277005
48.828572624680795
48.30339057942481
47.78524719225287
47.27364449987377
46.76796141791145
46.2674280812299
45.7711161184992
45.27799598151986
44.78703436869895
44.17960439434855
43.57355113883613
42.96858476809205
42.364331437740326
41.76028289846552
41.1557038619202
40.549441057478774
39.93912074260996
39.321243454992214
27.59057532224044
24.19229992720395
23.049422064149383
22.698767628010135
22.583342271323083
22.540943019668443
22.505910546877484
22.43085713304599
22.166530049692728
22.153641711072837
22.141547716603444
22.130525602470826
22.120726584986187
22.112243552335237
22.105129896568265
22.099418444169277
22.095129063402982
22.092272105023923
51.58171572439631
51.016868915029264
50.46034677511854
49.912045510983404
49.37179724149016
48.83937327961425
48.31448016542562
47.79675015221799
47.28572796881434
46.78085558847789
46.28145909589246
45.78675111480259
45.295869253192855
44.80791217492488
44.20478560091486
43.60318399716523
43.002874668354465
42.40358197265459
41.80496245332893
41.20655660777537
40.60765946298683
40.00720768749313
39.39785446933711
27.400709631069475
24.199535759971113
23.052401978459862
22.716390181008236
22.601752194285925
22.560882765406433
22.525674166687843
22.45587585261649
22.18168451080955
22.16736716084162
22.154153878079757
22.14223378049437
22.1317504691596
22.122749328696766
22.11525387480867
22.10927808004269
22.104830309847532
22.10191465426751
51.59222871597319
51.02740279067164
50.47093116420607
49.92272314066706
49.38262782716736
48.850436204507986
48.32587893250599
47.808620240990926
47.298249603144235
46.79427402912263
46.296116025316365
45.803123971292244
45.31459287073487
44.82976593086315
44.231136181165915
43.634204612521756
43.03881200743696
42.44480173399843
41.852032606353205
41.260407325249744
40.66993359207116
40.080846340868035
23.99013993172936
23.99013993172936
23.99013993172936
23.99013993172936
23.99013993172936
23.99013993172936
23.99013993172936
23.99013993172936
23.99013993172936
23.99013993172936
22.18228975483639
22.16763940786406
22.154740306241408
22.14353369045329
22.13399130957703
22.126098651298292
22.119848152609745
22.115235710900535
22.11225881416495
51.813840121560546
51.24989408347134
50.69574308008661
50.15143290104867
49.61703842334919
49.09267109650396
48.57849145321569
48.07472767762324
47.58170159609099
47.09986396613103
46.62984131637207
46.17249727970023
45.72901522072457
45.30101903221865
44.78245443052878
44.268104793076766
43.758414940468676
43.25385473013342
42.754922221373754
42.26214304306722
41.776061269130786
41.29721381337292
23.99013993172936
23.99013993172936
23.99013993172936
23.99013993172936
23.99013993172936
23.99013993172936
23.99013993172936
23.99013993172936
23.99013993172936
23.99013993172936
22.465405403955167
22.439825464988154
22.41747668522147
22.398304309502837
22.38225699094409
22.369290702768048
22.359370022131767
22.35246862475007
22.348569460719226
52.031281563053554
51.46796851852558
50.91535500216542
50.373475836623015
49.842382974056555
49.32214460702177
48.81284303189903
48.31457047335967
47.827421633871175
47.35148107818289
46.88680270009554
46.43337721597676
45.991080920632754
45.55959354979485
45.0321574347995
44.507414700446844
43.98520745559633
43.46535911291148
42.947669470397585
42.43191038272417
41.91782322515381
41.405120295113875
23.99013993172936
23.99013993172936
23.99013993172936
23.99013993172936
23.99013993172936
23.99013993172936
23.99013993172936
23.99013993172936
23.99013993172936
23.99013993172936
22.53591652755045
22.51592667383066
22.49819617188395
22.482757678748346
22.46963851970396
22.458860216560204
22.450438617076866
22.444384128174296
22.440701928189096
52.206087223760946
51.64294486852962
51.09054618286536
50.54889841069896
50.018006931396044
49.497874158977055
48.988498149960094
48.489871091968645
48.00197802198044
47.52479642711423
47.05829786201736
46.602453515054904
46.15724716254394
45.722701765454474
45.191697395964816
44.66362874209125
44.13852573797038
43.616425736877176
43.097376118286086
42.58143696662139
42.06868355200939
41.55920808057078
23.99013993172936
23.99013993172936
23.99013993172936
23.99013993172936
23.99013993172936
23.99013993172936
23.99013993172936
23.99013993172936
23.99013993172936
23.99013993172936
22.562363635038707
22.542053882217086
22.524150089570256
22.508637801055336
22.49550487972013
22.484741384796987
22.47633934001821
22.470292523182113
22.46659630664468
52.33227438875374
51.769166743338964
51.21666290889454
50.674766684031184
50.143478660232255
49.62279635809935
49.11271444621575
48.61322506039446
48.12431820584973
47.64598214199237
47.178203487800765
46.720966475228096
46.27425015361535
45.838021131360115
45.304742467822926
44.77432072884184
44.24673675733527
43.72196855264122
43.1999902236365
42.68077083232055
42.164273174022405
41.650452610884464
23.99013993172936
23.99013993172936
23.99013993172936
23.99013993172936
23.99013993172936
23.99013993172936
23.99013993172936
23.99013993172936
23.99013993172936
23.99013993172936
22.569889765790244
22.549967380778885
22.532362487729184
22.517076972992843
22.504111787471352
22.49346706296621
22.485142238005523
22.479136160809993
22.475447163670022
52.416272818230986
51.853181222095365
51.300587128440135
50.758494553148964
50.226904419075645
49.70581454258659
49.19521960051659
48.6951110621271
48.205477073586685
47.72630229782003
47.257567753056065
46.79925078762834
46.351325542138824
45.913764702957636
45.37876439441747
44.84662169191677
44.31732962100131
43.79088187983819
43.267273219455944
42.74649988552678
42.22856012001787
41.713454703139334
23.99013993172936
23.99013993172936
23.99013993172936
23.99013993172936
23.99013993172936
23.99013993172936
23.99013993172936
23.99013993172936
23.99013993172936
23.99013993172936
22.572440901631854
22.552525523336246
22.53493824969406
22.519675306681478
22.506733262933146
22.49610897145004
22.487799515759026
22.481802167995124
22.47811435944602
52.46422210155038
51.90113878337378
51.34849043824415
50.80628099080633
50.27451125264742
49.75317892634996
49.242278616898155
48.74180185643195
48.251737149900976
47.77207004842369
47.302783249756985
46.84385670051802
46.3952676069716
45.956990098907276
45.4210638689957
44.88798776346481
44.357752123460976
43.830346842874924
43.30576123838252
42.78398388999272
42.26500244799197
41.7488034064834
23.99013993172936
23.99013993172936
23.99013993172936
23.99013993172936
23.99013993172936
23.99013993172936
23.99013993172936
23.99013993172936
23.99013993172936
23.99013993172936
22.573186379825763
22.553300336591178
22.535734967146634
22.520488189132212
22.507557825748982
22.496941631748268
22.48863731547731
22.482642555434253
22.478955011632507
52.479800981979274
51.91672021179872
51.36405383445094
50.82180580325822
50.289976994942116
49.76856522052333
49.25756523980546
48.75696877652009
48.26676452960833
47.78693817494287
47.317472353273985
46.85834665038774
46.409537609834295
45.97101891000504
45.43477953066775
44.90138876190512
44.37083773956444
43.843117570155286
43.31821941200826
42.79613457641514
42.276854652915766
41.76037166120104
23.99013993172936
23.99013993172936
23.99013993172936
23.99013993172936
23.99013993172936
23.99013993172936
23.99013993172936
23.99013993172936
23.99013993172936
23.99013993172936
22.573359674243562
22.553473928341635
22.535910072872586
22.520665366859816
22.507737161043774
22.49712288121063
22.488820014617946
22.482826100005898
22.47913872082876
52.464222101550654
51.901138783374066
51.34849043824442
50.80628099080658
50.27451125264763
49.75317892635013
49.242278616898325
48.74180185643214
48.251737149901174
47.772070048423906
47.30278324975721
46.84385670051826
46.39526760697185
45.95699009890753
45.42106386899597
44.88798776346507
44.357752123461246
43.830346842875166
43.30576123838275
42.78398388999294
42.26500244799219
41.748803406483624
23.99013993172936
23.99013993172936
23.99013993172936
23.99013993172936
23.99013993172936
23.99013993172936
23.99013993172936
23.99013993172936
23.99013993172936
23.99013993172936
22.573186379825973
22.5533003365914
22.53573496714685
22.520488189132433
22.507557825749203
22.496941631748495
22.488637315477536
22.482642555434477
22.478955011632735
52.41627281823138
51.853181222095756
51.300587128440526
50.758494553149355
50.22690441907604
49.705814542586985
49.19521960051697
48.69511106212747
48.20547707358704
47.72630229782038
47.25756775305643
46.799250787628694
46.35132554213918
45.91376470295802
45.37876439441786
44.84662169191714
44.31732962100169
43.790881879838565
43.26727321945632
42.746499885527165
42.22856012001825
41.71345470313969
23.99013993172936
23.99013993172936
23.99013993172936
23.99013993172936
23.99013993172936
23.99013993172936
23.99013993172936
23.99013993172936
23.99013993172936
23.99013993172936
22.572440901632344
22.552525523336747
22.534938249694576
22.519675306682007
22.506733262933682
22.496108971450575
22.487799515759566
22.481802167995667
22.478114359446568
52.332274388754044
51.76916674333925
51.2166629088948
50.67476668403142
50.143478660232475
49.62279635809957
49.11271444621595
48.613225060394655
48.124318205849924
47.645982141992555
47.178203487800985
46.72096647522834
46.274250153615625
45.8380211313604
45.30474246782323
44.77432072884214
44.24673675733556
43.72196855264149
43.19999022363671
42.68077083232072
42.16427317402254
41.650452610884585
23.99013993172936
23.99013993172936
23.99013993172936
23.99013993172936
23.99013993172936
23.99013993172936
23.99013993172936
23.99013993172936
23.99013993172936
23.99013993172936
22.569889765791544
22.54996738078022
22.532362487730545
22.5170769729942
22.504111787472702
22.493467062967543
22.485142238006823
22.479136160811255
22.475447163671276
52.20608722376115
51.64294486852984
51.0905461828656
50.54889841069922
50.01800693139631
49.49787415897732
48.98849814996037
48.48987109196893
48.001978021980726
47.52479642711451
47.058297862017625
46.602453515055146
46.15724716254415
45.72270176545469
45.19169739596504
44.66362874209144
44.138525737970575
43.61642573687738
43.09737611828635
42.58143696662169
42.068683552009695
41.55920808057108
23.99013993172936
23.99013993172936
23.99013993172936
23.99013993172936
23.99013993172936
23.99013993172936
23.99013993172936
23.99013993172936
23.99013993172936
23.99013993172936
22.562363635039755
22.54205388221815
22.524150089571332
22.508637801056445
22.49550487972126
22.48474138479813
22.476339340019372
22.470292523183296
22.466596306645865
52.031281563053376
51.46796851852541
50.91535500216524
50.37347583662281
49.842382974056356
49.32214460702159
48.81284303189885
48.314570473359495
47.827421633871005
47.35148107818274
46.88680270009544
46.4333772159767
45.991080920632704
45.55959354979481
45.03215743479949
44.507414700446844
43.98520745559633
43.46535911291149
42.947669470397564
42.43191038272413
41.91782322515376
41.4051202951138
23.99013993172936
23.99013993172936
23.99013993172936
23.99013993172936
23.99013993172936
23.99013993172936
23.99013993172936
23.99013993172936
23.99013993172936
23.99013993172936
22.53591652755122
22.515926673831444
22.49819617188474
22.482757678749127
22.469638519704745
22.45886021656099
22.45043861707764
22.444384128175052
22.440701928189856
51.813840121560155
51.24989408347096
50.69574308008621
50.15143290104828
49.617038423348795
49.0926710965036
48.578491453215356
48.0747276776229
47.58170159609066
47.09986396613074
46.62984131637183
46.17249727970003
45.72901522072438
45.301019032218484
44.782454430528645
44.26810479307663
43.75841494046855
43.25385473013327
42.75492222137361
42.26214304306706
41.776061269130615
41.29721381337276
23.99013993172936
23.99013993172936
23.99013993172936
23.99013993172936
23.99013993172936
23.99013993172936
23.99013993172936
23.99013993172936
23.99013993172936
23.99013993172936
22.465405403955703
22.4398254649887
22.417476685222034
22.398304309503416
22.382256990944676
22.369290702768637
22.35937002213236
22.35246862475068
22.348569460719826
51.592228715972674
51.0274027906711
50.47093116420563
49.92272314066667
49.38262782716707
48.85043620450772
48.32587893250575
47.80862024099072
47.29824960314403
46.79427402912243
46.29611602531611
45.803123971291974
45.31459287073466
44.82976593086297
44.23113618116577
43.634204612521685
43.038812007436945
42.444801733998496
41.852032606353305
41.26040732524988
40.669933592071324
40.0808463408682
23.99013993172936
23.99013993172936
23.99013993172936
23.99013993172936
23.99013993172936
23.99013993172936
23.99013993172936
23.99013993172936
23.99013993172936
23.99013993172936
22.182289754836965
22.16763940786465
22.154740306242005
22.1435336904539
22.133991309577652
22.126098651298914
22.11984815261036
22.11523571090113
22.112258814165546
51.581715724395764
51.01686891502867
50.460346775118126
49.912045510983
49.371797241489844
48.83937327961401
48.31448016542535
47.79675015221776
47.285727968814136
46.78085558847767
46.2814590958922
45.78675111480231
45.29586925319261
44.807912174924695
44.20478560091473
43.60318399716519
43.00287466835449
42.40358197265464
41.804962453329026
41.20655660777549
40.607659462986966
40.00720768749329
39.39785446933727
27.400709631070246
24.199535759971123
23.05240197845982
22.716390181008688
22.601752194286085
22.56088276540667
22.525674166688045
22.455875852616145
22.18168451081009
22.167367160842186
22.15415387808034
22.14223378049496
22.1317504691602
22.122749328697367
22.115253874809262
22.109278080043268
22.104830309848122
22.10191465426809
51.57135604385234
51.00649348180781
50.4499351686321
49.90156288254837
49.36119129276975
48.82857262468055
48.30339057942456
47.78524719225262
47.27364449987355
46.76796141791123
46.267428081229646
45.771116118498924
45.277995981519645
44.78703436869876
44.17960439434843
43.57355113883604
42.96858476809204
42.36433143774034
41.760282898465626
41.15570386192031
40.54944105747892
39.93912074261012
39.32124345499237
27.590575322241232
24.19229992720399
23.04942206414938
22.698767628010604
22.58334227132325
22.540943019668706
22.505910546877725
22.430857133045624
22.166530049693264
22.1536417110734
22.141547716604013
22.130525602471398
22.120726584986773
22.11224355233581
22.10512989656884
22.099418444169853
22.095129063403565
22.092272105024488
51.56115083005328
50.99627855485628
50.4397004565521
49.89128166338144
49.35081881107553
48.81804595570304
48.29262570603506
47.77413226811507
47.26202801127456
46.755632382510946
46.25408240329281
45.75630243456339
45.26107397507517
44.76724270302499
44.15573203127468
43.54549657620602
42.93622337252413
42.32748368163899
41.71867835395773
41.10895702687401
40.497056350723454