# vtk DataFile Version 2.0
Niestacjonarne zagadnienie cieplne - ogrzewanie wody w garnku stalowym
ASCII
DATASET UNSTRUCTURED_GRID
POINTS 1353 float
0.0 0.0 0.0
0.0 0.0015384615384615385 0.0
0.0 0.003076923076923077 0.0
0.0 0.004615384615384615 0.0
0.0 0.006153846153846154 0.0
0.0 0.007692307692307693 0.0
0.0 0.00923076923076923 0.0
0.0 0.010769230769230769 0.0
0.0 0.012307692307692308 0.0
0.0 0.013846153846153847 0.0
0.0 0.015384615384615385 0.0
0.0 0.016923076923076923 0.0
0.0 0.01846153846153846 0.0
0.0 0.02 0.0
0.0 0.020555555555555556 0.0
0.0 0.021111111111111112 0.0
0.0 0.021666666666666667 0.0
0.0 0.022222222222222223 0.0
0.0 0.02277777777777778 0.0
0.0 0.023333333333333334 0.0
0.0 0.02388888888888889 0.0
0.0 0.024444444444444446 0.0
0.0 0.025 0.0
0.0 0.036111111111111115 0.0
0.0 0.04722222222222222 0.0
0.0 0.058333333333333334 0.0
0.0 0.06944444444444445 0.0
0.0 0.08055555555555556 0.0
0.0 0.09166666666666667 0.0
0.0 0.10277777777777777 0.0
0.0 0.1138888888888889 0.0
0.0 0.125 0.0
0.0 0.12555555555555556 0.0
0.0 0.12611111111111112 0.0
0.0 0.12666666666666668 0.0
0.0 0.1272222222222222 0.0
0.0 0.12777777777777777 0.0
0.0 0.12833333333333333 0.0
0.0 0.1288888888888889 0.0
0.0 0.12944444444444445 0.0
0.0 0.13 0.0
5.555555555555556E-4 0.0 0.0
5.555555555555556E-4 0.0015384615384615385 0.0
5.555555555555556E-4 0.003076923076923077 0.0
5.555555555555556E-4 0.004615384615384615 0.0
5.555555555555556E-4 0.006153846153846154 0.0
5.555555555555556E-4 0.007692307692307693 0.0
5.555555555555556E-4 0.00923076923076923 0.0
5.555555555555556E-4 0.010769230769230769 0.0
5.555555555555556E-4 0.012307692307692308 0.0
5.555555555555556E-4 0.013846153846153847 0.0
5.555555555555556E-4 0.015384615384615385 0.0
5.555555555555556E-4 0.016923076923076923 0.0
5.555555555555556E-4 0.01846153846153846 0.0
5.555555555555556E-4 0.02 0.0
5.555555555555556E-4 0.020555555555555556 0.0
5.555555555555556E-4 0.021111111111111112 0.0
5.555555555555556E-4 0.021666666666666667 0.0
5.555555555555556E-4 0.022222222222222223 0.0
5.555555555555556E-4 0.02277777777777778 0.0
5.555555555555556E-4 0.023333333333333334 0.0
5.555555555555556E-4 0.02388888888888889 0.0
5.555555555555556E-4 0.024444444444444446 0.0
5.555555555555556E-4 0.025 0.0
5.555555555555556E-4 0.036111111111111115 0.0
5.555555555555556E-4 0.04722222222222222 0.0
5.555555555555556E-4 0.058333333333333334 0.0
5.555555555555556E-4 0.06944444444444445 0.0
5.555555555555556E-4 0.08055555555555556 0.0
5.555555555555556E-4 0.09166666666666667 0.0
5.555555555555556E-4 0.10277777777777777 0.0
5.555555555555556E-4 0.1138888888888889 0.0
5.555555555555556E-4 0.125 0.0
5.555555555555556E-4 0.12555555555555556 0.0
5.555555555555556E-4 0.12611111111111112 0.0
5.555555555555556E-4 0.12666666666666668 0.0
5.555555555555556E-4 0.1272222222222222 0.0
5.555555555555556E-4 0.12777777777777777 0.0
5.555555555555556E-4 0.12833333333333333 0.0
5.555555555555556E-4 0.1288888888888889 0.0
5.555555555555556E-4 0.12944444444444445 0.0
5.555555555555556E-4 0.13 0.0
0.0011111111111111111 0.0 0.0
0.0011111111111111111 0.0015384615384615385 0.0
0.0011111111111111111 0.003076923076923077 0.0
0.0011111111111111111 0.004615384615384615 0.0
0.0011111111111111111 0.006153846153846154 0.0
0.0011111111111111111 0.007692307692307693 0.0
0.0011111111111111111 0.00923076923076923 0.0
0.0011111111111111111 0.010769230769230769 0.0
0.0011111111111111111 0.012307692307692308 0.0
0.0011111111111111111 0.013846153846153847 0.0
0.0011111111111111111 0.015384615384615385 0.0
0.0011111111111111111 0.016923076923076923 0.0
0.0011111111111111111 0.01846153846153846 0.0
0.0011111111111111111 0.02 0.0
0.0011111111111111111 0.020555555555555556 0.0
0.0011111111111111111 0.021111111111111112 0.0
0.0011111111111111111 0.021666666666666667 0.0
0.0011111111111111111 0.022222222222222223 0.0
0.0011111111111111111 0.02277777777777778 0.0
0.0011111111111111111 0.023333333333333334 0.0
0.0011111111111111111 0.02388888888888889 0.0
0.0011111111111111111 0.024444444444444446 0.0
0.0011111111111111111 0.025 0.0
0.0011111111111111111 0.036111111111111115 0.0
0.0011111111111111111 0.04722222222222222 0.0
0.0011111111111111111 0.058333333333333334 0.0
0.0011111111111111111 0.06944444444444445 0.0
0.0011111111111111111 0.08055555555555556 0.0
0.0011111111111111111 0.09166666666666667 0.0
0.0011111111111111111 0.10277777777777777 0.0
0.0011111111111111111 0.1138888888888889 0.0
0.0011111111111111111 0.125 0.0
0.0011111111111111111 0.12555555555555556 0.0
0.0011111111111111111 0.12611111111111112 0.0
0.0011111111111111111 0.12666666666666668 0.0
0.0011111111111111111 0.1272222222222222 0.0
0.0011111111111111111 0.12777777777777777 0.0
0.0011111111111111111 0.12833333333333333 0.0
0.0011111111111111111 0.1288888888888889 0.0
0.0011111111111111111 0.12944444444444445 0.0
0.0011111111111111111 0.13 0.0
0.0016666666666666666 0.0 0.0
0.0016666666666666666 0.0015384615384615385 0.0
0.0016666666666666666 0.003076923076923077 0.0
0.0016666666666666666 0.004615384615384615 0.0
0.0016666666666666666 0.006153846153846154 0.0
0.0016666666666666666 0.007692307692307693 0.0
0.0016666666666666666 0.00923076923076923 0.0
0.0016666666666666666 0.010769230769230769 0.0
0.0016666666666666666 0.012307692307692308 0.0
0.0016666666666666666 0.013846153846153847 0.0
0.0016666666666666666 0.015384615384615385 0.0
0.0016666666666666666 0.016923076923076923 0.0
0.0016666666666666666 0.01846153846153846 0.0
0.0016666666666666666 0.02 0.0
0.0016666666666666666 0.020555555555555556 0.0
0.0016666666666666666 0.021111111111111112 0.0
0.0016666666666666666 0.021666666666666667 0.0
0.0016666666666666666 0.022222222222222223 0.0
0.0016666666666666666 0.02277777777777778 0.0
0.0016666666666666666 0.023333333333333334 0.0
0.0016666666666666666 0.02388888888888889 0.0
0.0016666666666666666 0.024444444444444446 0.0
0.0016666666666666666 0.025 0.0
0.0016666666666666666 0.036111111111111115 0.0
0.0016666666666666666 0.04722222222222222 0.0
0.0016666666666666666 0.058333333333333334 0.0
0.0016666666666666666 0.06944444444444445 0.0
0.0016666666666666666 0.08055555555555556 0.0
0.0016666666666666666 0.09166666666666667 0.0
0.0016666666666666666 0.10277777777777777 0.0
0.0016666666666666666 0.1138888888888889 0.0
0.0016666666666666666 0.125 0.0
0.0016666666666666666 0.12555555555555556 0.0
0.0016666666666666666 0.12611111111111112 0.0
0.0016666666666666666 0.12666666666666668 0.0
0.0016666666666666666 0.1272222222222222 0.0
0.0016666666666666666 0.12777777777777777 0.0
0.0016666666666666666 0.12833333333333333 0.0
0.0016666666666666666 0.1288888888888889 0.0
0.0016666666666666666 0.12944444444444445 0.0
0.0016666666666666666 0.13 0.0
0.0022222222222222222 0.0 0.0
0.0022222222222222222 0.0015384615384615385 0.0
0.0022222222222222222 0.003076923076923077 0.0
0.0022222222222222222 0.004615384615384615 0.0
0.0022222222222222222 0.006153846153846154 0.0
0.0022222222222222222 0.007692307692307693 0.0
0.0022222222222222222 0.00923076923076923 0.0
0.0022222222222222222 0.010769230769230769 0.0
0.0022222222222222222 0.012307692307692308 0.0
0.0022222222222222222 0.013846153846153847 0.0
0.0022222222222222222 0.015384615384615385 0.0
0.0022222222222222222 0.016923076923076923 0.0
0.0022222222222222222 0.01846153846153846 0.0
0.0022222222222222222 0.02 0.0
0.0022222222222222222 0.020555555555555556 0.0
0.0022222222222222222 0.021111111111111112 0.0
0.0022222222222222222 0.021666666666666667 0.0
0.0022222222222222222 0.022222222222222223 0.0
0.0022222222222222222 0.02277777777777778 0.0
0.0022222222222222222 0.023333333333333334 0.0
0.0022222222222222222 0.02388888888888889 0.0
0.0022222222222222222 0.024444444444444446 0.0
0.0022222222222222222 0.025 0.0
0.0022222222222222222 0.036111111111111115 0.0
0.0022222222222222222 0.04722222222222222 0.0
0.0022222222222222222 0.058333333333333334 0.0
0.0022222222222222222 0.06944444444444445 0.0
0.0022222222222222222 0.08055555555555556 0.0
0.0022222222222222222 0.09166666666666667 0.0
0.0022222222222222222 0.10277777777777777 0.0
0.0022222222222222222 0.1138888888888889 0.0
0.0022222222222222222 0.125 0.0
0.0022222222222222222 0.12555555555555556 0.0
0.0022222222222222222 0.12611111111111112 0.0
0.0022222222222222222 0.12666666666666668 0.0
0.0022222222222222222 0.1272222222222222 0.0
0.0022222222222222222 0.12777777777777777 0.0
0.0022222222222222222 0.12833333333333333 0.0
0.0022222222222222222 0.1288888888888889 0.0
0.0022222222222222222 0.12944444444444445 0.0
0.0022222222222222222 0.13 0.0
0.002777777777777778 0.0 0.0
0.002777777777777778 0.0015384615384615385 0.0
0.002777777777777778 0.003076923076923077 0.0
0.002777777777777778 0.004615384615384615 0.0
0.002777777777777778 0.006153846153846154 0.0
0.002777777777777778 0.007692307692307693 0.0
0.002777777777777778 0.00923076923076923 0.0
0.002777777777777778 0.010769230769230769 0.0
0.002777777777777778 0.012307692307692308 0.0
0.002777777777777778 0.013846153846153847 0.0
0.002777777777777778 0.015384615384615385 0.0
0.002777777777777778 0.016923076923076923 0.0
0.002777777777777778 0.01846153846153846 0.0
0.002777777777777778 0.02 0.0
0.002777777777777778 0.020555555555555556 0.0
0.002777777777777778 0.021111111111111112 0.0
0.002777777777777778 0.021666666666666667 0.0
0.002777777777777778 0.022222222222222223 0.0
0.002777777777777778 0.02277777777777778 0.0
0.002777777777777778 0.023333333333333334 0.0
0.002777777777777778 0.02388888888888889 0.0
0.002777777777777778 0.024444444444444446 0.0
0.002777777777777778 0.025 0.0
0.002777777777777778 0.036111111111111115 0.0
0.002777777777777778 0.04722222222222222 0.0
0.002777777777777778 0.058333333333333334 0.0
0.002777777777777778 0.06944444444444445 0.0
0.002777777777777778 0.08055555555555556 0.0
0.002777777777777778 0.09166666666666667 0.0
0.002777777777777778 0.10277777777777777 0.0
0.002777777777777778 0.1138888888888889 0.0
0.002777777777777778 0.125 0.0
0.002777777777777778 0.12555555555555556 0.0
0.002777777777777778 0.12611111111111112 0.0
[...]
POINT_DATA 1353
SCALARS Temperatura float 1
LOOKUP_TABLE default
18.485140620280628
17.90978683840254
17.375718020298212
16.88218571698042
16.428307637061273
16.013043910265065
15.635238456967672
15.2936545993188
14.987004683191502
14.713974146447907
14.47323334084837
14.26348654860991
14.083380347678235
13.932897077470406
13.768931406667672
13.609075682348067
13.455002045597759
13.30651863325943
13.163286283201224
13.024885359698201
12.890870574654828
12.76080107688486
12.634266807944124
10.843744119138007
10.419910548074414
10.35301964650335
10.338234487414923
10.336268237513064
10.336753288564326
10.341123923350157
10.3658539214491
10.462222531888997
10.469252568096966
10.47651591034266
10.484037257702848
10.491841444649713
10.499951680785538
10.508388194843748
10.51716731504187
10.526300913060606
10.535796089450713
18.484642774868874
17.90916258435209
17.37494620620985
16.881276972774675
16.427272029579136
16.0118928890864
15.633983743405665
15.292308076151942
14.98557867768189
14.712479730533618
14.471687489322735
14.261875154406455
14.08182013248128
13.930621223637205
13.763722519565222
13.603547936283194
13.449276490020708
13.300683886291058
13.157380296435644
13.018927014756105
12.884864187102488
12.754737361470339
12.628123088507975
10.83316167797341
10.410367599389586
10.343358806575898
10.32859689222715
10.326630333258832
10.32711417801524
10.331488511415097
10.356175289015177
10.452709558504095
10.45973794890839
10.466998620338881
10.474517308504701
10.482319740154441
10.490429783728604
10.498868082541934
10.507651181021881
10.516791038059397
10.526294776870886
18.484083468671034
17.90853070049975
17.374194090054388
16.88040650517042
16.426291233467087
16.010812915321477
15.632817490133663
15.291069812430353
14.984283768864708
14.711145110469234
14.470328417757818
14.260507170812334
14.080427771074978
13.928663607091158
13.760713438680506
13.599871513619174
13.445430037924051
13.296840516321094
13.153632744166515
13.01531874771329
12.8813992419536
12.751380067165034
12.624797145066625
10.820104292597495
10.401343563369299
10.334099686604556
10.319443285869875
10.317478301835568
10.317957729409622
10.322334879550295
10.346839368456942
10.44367732999767
10.45068533160258
10.457922058883716
10.465416481829566
10.47319704322497
10.48128954105407
10.489715761546949
10.4984927846953
10.507632737126615
10.517142751039161
18.48349362960281
17.90789384214549
17.373462700007266
16.879574642315056
16.42536516617754
16.00980368005952
15.631739215598445
15.289939064571854
14.983119411284516
14.709968226341047
14.469160072953484
14.25936814454708
14.079265456974666
13.927215828050295
13.758854907333586
13.597771070835039
13.443318535648837
13.294914172532787
13.152011104526059
13.01406561914509
12.880520871259176
12.750816712761223
12.62441644640167
10.804469511523457
10.39287957125346
10.325227915920848
10.310776254384262
10.30881002699838
10.309282442412249
10.313663540513176
10.337840526330227
10.435131757288252
10.442097178607748
10.44928528119471
10.45673104482373
10.464467719447143
10.472524262851614
10.480924106147157
10.48968491340381
10.49881883828628
10.508332873200875
18.482891117558445
17.907258349590414
17.372753411927707
16.878781878480687
16.424493681344376
16.008864661779228
15.630748075543108
15.28891470985049
14.982084152431288
14.708947553031726
14.468181721541146
14.258455378996553
14.078387670085553
13.92629159804631
13.757933662158955
13.596959576985753
13.442773984618944
13.29479913724602
13.15246153467268
13.0151697335982
12.882298660333293
12.75319365330792
12.62720255827969
10.786083359876116
10.385046352249127
10.316718414490678
10.302600290973823
10.300621680137153
10.30108562420822
10.305475278293041
10.329168972895419
10.427083316491103
10.43397731512737
10.441085742403995
10.448453534006923
10.45612124995562
10.464121990134165
10.47248077181517
10.481215338471944
10.490337333160669
10.499853239554987
18.48228771229278
17.906630695620656
17.372068216753377
16.878028756757807
16.423676562558377
16.00799511950976
15.629842893398077
15.287995158221172
14.981175963226654
14.708080947131593
14.467390858871743
14.257771384870074
14.077818976122359
13.92587438014504
13.757833953603944
13.597270623714628
13.443633383765016
13.296368154549157
13.154901975338756
13.018615645408719
12.88681423006206
12.758716170394509
12.633489421223246
10.76469232785975
10.377948116553554
10.308533937450065
10.294922492305375
10.292907655095537
10.293363492058932
10.2977714498336
10.32081035604915
10.419548562062307
10.426330578616797
10.433317645176182
10.440570759790148
10.448140648247126
10.456064588369141
10.46436788326347
10.47306689263823
10.482171661988243
10.491687530060432
18.48169189202905
17.906016589347995
17.37140937331608
16.877315851095663
16.422913489994162
16.00719409382324
15.629022162405738
15.287178360294156
14.98039225515726
14.707365380332323
14.46678425901992
14.257316951677515
14.077564060949257
13.92593474450263
13.758465112698476
13.598568173376613
13.44573970254365
13.299465124217047
13.159200489721648
13.0243354807152
12.894127036869277
12.767638793283723
12.643753821156167
10.73995053419073
10.371728460087072
10.300622788060412
10.287753541731055
10.285660396473148
10.286111251374507
10.290554390389184
10.31274498641776
10.41255267546917
10.419161294998494
10.425967982916493
10.433059879514165
10.440499881998717
10.448326632905285
10.456561834394936
10.465217768810088
10.474301247871683
10.483815610537405
18.481110087650663
17.90542084121967
17.370779107327785
16.876643709432546
16.4222040151647
16.006460402952953
15.628284049447336
15.286461822032365
14.97972984794107
14.706796979100657
14.466357714311764
14.257089041624152
14.077614992620667
13.92643468278088
13.759738542126597
13.600717706034699
13.44892073132441
13.303889426263428
13.165142439437625
13.032137829466704
12.904188840829617
12.780219630212708
12.658666881257679
10.711399397533302
10.36657913683551
10.29291541967563
10.28110907418039
10.278870096308285
10.279323137958956
10.283827996590198
10.304946437545361
10.406133932911215
10.412467790366497
10.419007271472596
10.425880953430482
10.433160939908186
10.44087469142732
10.449033606282
10.457642279968741
10.466702428084442
10.47621450714231
18.480547330653373
17.904847432976943
17.370179431741743
16.876012781590937
16.42154753753366
16.00579263838816
15.627626402124566
15.285842614778383
14.97918496431569
14.706371046866165
14.466105717158287
14.257080757922544
14.077955789539619
13.927329879424056
13.761561375134837
13.603576190980888
13.452980616501447
13.309386356742284
13.172405008007672
13.041630641859523
12.916586168734813
12.796565831452783
12.679188024158938
10.678433575151262
10.362753572312092
10.285319346064876
10.275011605578118
10.272524214421468
10.27299239324898
10.277598657663363
10.297378915635647
10.4003522212071
10.40622616639907
10.412361093559314
10.418969823730512
10.426072523706408
10.433668073547684
10.441750097554692
10.450312300605178
10.459349883147622
10.468859820634862
18.480007634684625
17.904299631031822
17.369612055792782
16.875423354555924
16.420943281723975
16.005189162268618
15.627046758093059
15.285317387814642
14.978753242117774
14.706082065122045
14.466021361443566
14.257282042166647
14.078565482572612
13.928572123320038
13.763837199162522
13.606993576848234
13.457705301200674
13.315657791892988
13.180568162071909
13.052201945761261
12.930403874738763
12.815161905982979
10.184580077405931
10.184580077405931
10.184580077405931
10.184580077405931
10.184580077405931
10.184580077405931
10.184580077405931
10.184580077405931
10.184580077405931
10.184580077405931
10.400219162116837
10.405898775976704
10.412238477004715
10.419173456097164
10.426662068349804
10.434676790568869
10.44319945884826
10.452218545226723
10.461727540823036
18.47423202993053
17.898607889093103
17.364199662969817
16.87053749348023
16.416910360439537
16.002438574689595
15.62613586582099
15.286963064235932
14.983875261139378
14.715864585156137
14.482001199123813
14.28147561707043
14.113645073350906
13.97808371255068
13.83426406790129
13.699238633678023
13.572884768771372
13.455092707650707
13.34576506142515
13.244814519793447
13.152157615201315
13.067699191433302
10.184580077405931
10.184580077405931
10.184580077405931
10.184580077405931
10.184580077405931
10.184580077405931
10.184580077405931
10.184580077405931
10.184580077405931
10.184580077405931
10.29591821107958
10.303657390660785
10.311596773415141
10.319776075602443
10.328224638072657
10.33696430635077
10.34601098674445
10.3553755221995
10.365064162039491
18.47450699823165
17.898985552740765
17.364884935106105
16.871735329765073
16.418825976413043
16.005276603972234
15.630096451022405
15.292232491338009
14.990608085600673
14.72415278053439
14.491823369621889
14.292615594107295
14.125565158695077
13.989736477428833
13.844520143669337
13.70773716808745
13.57910379305798
13.45834001740029
13.345168776500882
13.239315436484734
13.140508181128173
13.048480763378892
10.184580077405931
10.184580077405931
10.184580077405931
10.184580077405931
10.184580077405931
10.184580077405931
10.184580077405931
10.184580077405931
10.184580077405931
10.184580077405931
10.274984439323061
10.281267264804193
10.28804501871715
10.295308932547748
10.303053400591537
10.31127487237776
10.319971150540725
10.32914090482858
10.338783318115034
18.475581816650397
17.90008192302578
17.366042749661062
16.872989937923826
16.420204651648245
16.006794641946456
15.631753138902372
15.29400736030799
14.99245821546339
14.726012654013122
14.49361007993605
14.29424435019135
14.126983104124744
13.99098646398126
13.845681823785897
13.708889313708326
13.58037456686108
13.459913147702736
13.34729123877926
13.242306225287553
13.144767037004602
13.054493860018786
10.184580077405931
10.184580077405931
10.184580077405931
10.184580077405931
10.184580077405931
10.184580077405931
10.184580077405931
10.184580077405931
10.184580077405931
10.184580077405931
10.269694469887058
10.276096647994207
10.282941285790917
10.290238186336232
10.297995230454823
10.306218665757749
10.314913246860796
10.324082282415551
10.333727614130545
18.4760328413596
17.90053379233481
17.366496199628145
16.873445152379727
16.42066112435977
16.007251326961722
15.632208957957713
15.294462127036857
14.992913969845882
14.72647520873915
14.494090165388632
14.294756953401171
14.12754225512401
13.99159069856204
13.846323153467425
13.709553100523866
13.581033195455433
13.460523509645816
13.3477913866374
13.242611230445327
13.144764262462088
13.054038350520424
10.184580077405931
10.184580077405931
10.184580077405931
10.184580077405931
10.184580077405931
10.184580077405931
10.184580077405931
10.184580077405931
10.184580077405931
10.184580077405931
10.268766894284814
10.275094670449848
10.28188664223676
10.289146670637637
10.296878405665607
10.305085088610337
10.313769386071158
10.322933237861564
10.332577709650867
18.476157183509756
17.900658218874625
17.366620711571095
16.87356985109815
16.42078624534282
16.00737722917165
15.632336044733776
15.294590659452819
14.993043728311044
14.726604983651223
14.494217148006554
14.294876317971093
14.127647667866931
13.991677283142224
13.846386734878473
13.70959703603547
13.581063947791538
13.4605515182245
13.347832276494367
13.242687379984256
13.144906711830401
13.054288907526924
10.184580077405931
10.184580077405931
10.184580077405931
10.184580077405931
10.184580077405931
10.184580077405931
10.184580077405931
10.184580077405931
10.184580077405931
10.184580077405931
10.268552034848028
10.27488822151294
10.281683946344906
10.288944927214182
10.296676109838078
10.304881635665746
10.31356478256011
10.322727882895752
10.33237222096109
18.476183564592997
17.900684625479574
17.36664714070915
16.873596269101988
16.420812569841843
16.007403314493413
15.632361676242466
15.294615569533077
14.993067653714302
14.726627786056122
14.494239006566586
14.294897952124947
14.127670421508306
13.991702633776153
13.84641585802684
13.709629574217145
13.58109880919658
13.4605865980092
13.347864055022894
13.242710381231744
13.144912812290716
13.054266516404255
10.184580077405931
10.184580077405931
10.184580077405931
10.184580077405931
10.184580077405931
10.184580077405931
10.184580077405931
10.184580077405931
10.184580077405931
10.184580077405931
10.268517500662776
10.274849812295436
10.281643220925368
10.288902887742198
10.296633381400968
10.304838589704072
10.313521623694697
10.322684711617125
10.332329080959076
18.476186664905434
17.900687714977156
17.36665019372049
16.873599263408476
16.42081549001407
16.00740615687615
15.632364454919717
15.294618319881272
14.99307042653577
14.726630621640945
14.49424187737892
14.29490067329805
14.12767256701051
13.991703595300201
13.84641500850542
13.709627018130327
13.581094844836823
13.460581821828722
13.34785951741589
13.242707804109086
13.144914878200675
13.054277230760711
10.184580077405931
10.184580077405931
10.184580077405931
10.184580077405931
10.184580077405931
10.184580077405931
10.184580077405931
10.184580077405931
10.184580077405931
10.184580077405931
10.268510762943869
10.274843863198265
10.281637590110789
10.288897307842133
10.29662771827588
10.304832795738848
10.31351570612993
10.32267871075796
10.332323054627253
18.476183564593068
17.90068462547965
17.36664714070922
16.873596269102052
16.420812569841896
16.00740331449345
15.632361676242505
15.294615569533118
14.993067653714347
14.726627786056174
14.494239006566639
14.294897952125005
14.12767042150836
13.991702633776207
13.846415858026894
13.709629574217196
13.58109880919663
13.460586598009241
13.347864055022933
13.242710381231785
13.14491281229076
13.054266516404306
10.184580077405931
10.184580077405931
10.184580077405931
10.184580077405931
10.184580077405931
10.184580077405931
10.184580077405931
10.184580077405931
10.184580077405931
10.184580077405931
10.268517500662831
10.274849812295495
10.281643220925428
10.288902887742259
10.296633381401028
10.304838589704138
10.313521623694763
10.32268471161719
10.332329080959143
18.47615718350986
17.900658218874728
17.366620711571198
16.87356985109825
16.420786245342917
16.00737722917174
15.63233604473386
15.294590659452899
14.993043728311124
14.726604983651294
14.494217148006625
14.294876317971163
14.127647667867004
13.991677283142307
13.846386734878559
13.709597036035554
13.581063947791622
13.460551518224582
13.347832276494453
13.242687379984343
13.14490671183049
13.054288907527008
10.184580077405931
10.184580077405931
10.184580077405931
10.184580077405931
10.184580077405931
10.184580077405931
10.184580077405931
10.184580077405931
10.184580077405931
10.184580077405931
10.268552034848186
10.2748882215131
10.281683946345069
10.288944927214352
10.296676109838248
10.304881635665913
10.313564782560277
10.322727882895922
10.332372220961261
18.476032841359665
17.900533792334862
17.366496199628195
16.87344515237977
16.42066112435981
16.007251326961757
15.63220895795774
15.29446212703688
14.992913969845905
14.726475208739178
14.494090165388672
14.294756953401214
14.127542255124062
13.991590698562092
13.846323153467482
13.709553100523923
13.58103319545549
13.460523509645867
13.347791386637434
13.24261123044535
13.144764262462104
13.054038350520438
10.184580077405931
10.184580077405931
10.184580077405931
10.184580077405931
10.184580077405931
10.184580077405931
10.184580077405931
10.184580077405931
10.184580077405931
10.184580077405931
10.268766894285296
10.275094670450343
10.281886642237263
10.289146670638138
10.296878405666105
10.305085088610825
10.31376938607163
10.322933237862019
10.332577709651314
18.47558181665044
17.900081923025827
17.366042749661116
16.872989937923887
16.4202046516483
16.006794641946517
15.631753138902432
15.294007360308047
14.992458215463456
14.72601265401319
14.493610079936108
14.294244350191407
14.126983104124795
13.990986463981308
13.845681823785945
13.708889313708362
13.580374566861119
13.459913147702782
13.347291238779324
13.242306225287626
13.144767037004675
13.054493860018855
10.184580077405931
10.184580077405931
10.184580077405931
10.184580077405931
10.184580077405931
10.184580077405931
10.184580077405931
10.184580077405931
10.184580077405931
10.184580077405931
10.269694469887423
10.276096647994574
10.282941285791292
10.290238186336616
10.297995230455214
10.306218665758143
10.314913246861195
10.324082282415961
10.333727614130957
18.47450699823161
17.898985552740726
17.36488493510606
16.87173532976502
16.41882597641299
16.005276603972185
15.630096451022355
15.292232491337959
14.990608085600627
14.72415278053435
14.491823369621867
14.29261559410728
14.12556515869506
13.989736477428819
13.844520143669323
13.70773716808744
13.579103793057971
13.458340017400287
13.34516877650087
13.239315436484716
13.140508181128148
13.04848076337886
10.184580077405931
10.184580077405931
10.184580077405931
10.184580077405931
10.184580077405931
10.184580077405931
10.184580077405931
10.184580077405931
10.184580077405931
10.184580077405931
10.274984439323319
10.281267264804454
10.288045018717412
10.295308932548004
10.303053400591791
10.311274872378013
10.31997115054097
10.329140904828819
10.338783318115274
18.474232029930423
17.898607889093004
17.364199662969714
16.870537493480125
16.416910360439427
16.002438574689496
15.626135865820897
15.28696306423584
14.983875261139291
14.71586458515606
14.48200119912375
14.281475617070381
14.113645073350867
13.978083712550646
13.834264067901266
13.699238633677997
13.57288476877135
13.455092707650682
13.345765061425126
13.24481451979342
13.152157615201286
13.067699191433272
10.184580077405931
10.184580077405931
10.184580077405931
10.184580077405931
10.184580077405931
10.184580077405931
10.184580077405931
10.184580077405931
10.184580077405931
10.184580077405931
10.295918211079739
10.303657390660947
10.311596773415308
10.319776075602617
10.32822463807283
10.336964306350945
10.346010986744629
10.355375522199683
10.365064162039674
18.480007634684487
17.90429963103168
17.369612055792658
16.87542335455583
16.420943281723908
16.005189162268568
15.62704675809302
15.28531738781461
14.978753242117742
14.70608206512201
14.466021361443518
14.257282042166594
14.078565482572563
13.92857212332001
13.763837199162504
13.606993576848245
13.457705301200694
13.31565779189303
13.180568162071959
13.05220194576132
12.930403874738829
12.815161905983041
10.184580077405931
10.184580077405931
10.184580077405931
10.184580077405931
10.184580077405931
10.184580077405931
10.184580077405931
10.184580077405931
10.184580077405931
10.184580077405931
10.400219162117034
10.405898775976908
10.412238477004921
10.41917345609737
10.426662068350018
10.434676790569084
10.443199458848467
10.452218545226923
10.461727540823235
18.480547330653224
17.90484743297679
17.37017943174163
16.87601278159084
16.421547537533595
16.00579263838811
15.627626402124525
15.285842614778348
14.979184964315653
14.706371046866115
14.46610571715824
14.257080757922479
14.077955789539569
13.927329879424033
13.761561375134823
13.6035761909809
13.45298061650147
13.30938635674232
13.172405008007729
13.041630641859587
12.91658616873488
12.796565831452856
12.679188024158996
10.67843357515148
10.362753572312048
10.28531934606481
10.275011605578266
10.27252421442151
10.272992393249067
10.277598657663418
10.29737891563548
10.400352221207285
10.406226166399259
10.412361093559513
10.418969823730713
10.426072523706617
10.433668073547892
10.441750097554891
10.450312300605379
10.459349883147818
10.468859820635052
18.481110087650492
17.90542084121951
17.37077910732767
16.876643709432468
16.42220401516464
16.0064604029529
15.628284049447299
15.286461822032326
14.979729847941037
14.706796979100611
14.466357714311707
14.25708904162408
14.077614992620628
13.92643468278086
13.759738542126586
13.600717706034704
13.448920731324433
13.303889426263463
13.165142439437677
13.032137829466771
12.904188840829697
12.780219630212788
12.658666881257766
10.711399397533519
10.366579136835481
10.292915419675575
10.28110907418055
10.278870096308333
10.279323137959036
10.283827996590267
10.304946437545198
10.406133932911398
10.412467790366689
10.419007271472793
10.425880953430672
10.433160939908381