# vtk DataFile Version 2.0
Niestacjonarne zagadnienie cieplne - ogrzewanie wody w garnku stalowym
ASCII
DATASET UNSTRUCTURED_GRID
POINTS 1353 float
0.0 0.0 0.0
0.0 0.0015384615384615385 0.0
0.0 0.003076923076923077 0.0
0.0 0.004615384615384615 0.0
0.0 0.006153846153846154 0.0
0.0 0.007692307692307693 0.0
0.0 0.00923076923076923 0.0
0.0 0.010769230769230769 0.0
0.0 0.012307692307692308 0.0
0.0 0.013846153846153847 0.0
0.0 0.015384615384615385 0.0
0.0 0.016923076923076923 0.0
0.0 0.01846153846153846 0.0
0.0 0.02 0.0
0.0 0.020555555555555556 0.0
0.0 0.021111111111111112 0.0
0.0 0.021666666666666667 0.0
0.0 0.022222222222222223 0.0
0.0 0.02277777777777778 0.0
0.0 0.023333333333333334 0.0
0.0 0.02388888888888889 0.0
0.0 0.024444444444444446 0.0
0.0 0.025 0.0
0.0 0.036111111111111115 0.0
0.0 0.04722222222222222 0.0
0.0 0.058333333333333334 0.0
0.0 0.06944444444444445 0.0
0.0 0.08055555555555556 0.0
0.0 0.09166666666666667 0.0
0.0 0.10277777777777777 0.0
0.0 0.1138888888888889 0.0
0.0 0.125 0.0
0.0 0.12555555555555556 0.0
0.0 0.12611111111111112 0.0
0.0 0.12666666666666668 0.0
0.0 0.1272222222222222 0.0
0.0 0.12777777777777777 0.0
0.0 0.12833333333333333 0.0
0.0 0.1288888888888889 0.0
0.0 0.12944444444444445 0.0
0.0 0.13 0.0
5.555555555555556E-4 0.0 0.0
5.555555555555556E-4 0.0015384615384615385 0.0
5.555555555555556E-4 0.003076923076923077 0.0
5.555555555555556E-4 0.004615384615384615 0.0
5.555555555555556E-4 0.006153846153846154 0.0
5.555555555555556E-4 0.007692307692307693 0.0
5.555555555555556E-4 0.00923076923076923 0.0
5.555555555555556E-4 0.010769230769230769 0.0
5.555555555555556E-4 0.012307692307692308 0.0
5.555555555555556E-4 0.013846153846153847 0.0
5.555555555555556E-4 0.015384615384615385 0.0
5.555555555555556E-4 0.016923076923076923 0.0
5.555555555555556E-4 0.01846153846153846 0.0
5.555555555555556E-4 0.02 0.0
5.555555555555556E-4 0.020555555555555556 0.0
5.555555555555556E-4 0.021111111111111112 0.0
5.555555555555556E-4 0.021666666666666667 0.0
5.555555555555556E-4 0.022222222222222223 0.0
5.555555555555556E-4 0.02277777777777778 0.0
5.555555555555556E-4 0.023333333333333334 0.0
5.555555555555556E-4 0.02388888888888889 0.0
5.555555555555556E-4 0.024444444444444446 0.0
5.555555555555556E-4 0.025 0.0
5.555555555555556E-4 0.036111111111111115 0.0
5.555555555555556E-4 0.04722222222222222 0.0
5.555555555555556E-4 0.058333333333333334 0.0
5.555555555555556E-4 0.06944444444444445 0.0
5.555555555555556E-4 0.08055555555555556 0.0
5.555555555555556E-4 0.09166666666666667 0.0
5.555555555555556E-4 0.10277777777777777 0.0
5.555555555555556E-4 0.1138888888888889 0.0
5.555555555555556E-4 0.125 0.0
5.555555555555556E-4 0.12555555555555556 0.0
5.555555555555556E-4 0.12611111111111112 0.0
5.555555555555556E-4 0.12666666666666668 0.0
5.555555555555556E-4 0.1272222222222222 0.0
5.555555555555556E-4 0.12777777777777777 0.0
5.555555555555556E-4 0.12833333333333333 0.0
5.555555555555556E-4 0.1288888888888889 0.0
5.555555555555556E-4 0.12944444444444445 0.0
5.555555555555556E-4 0.13 0.0
0.0011111111111111111 0.0 0.0
0.0011111111111111111 0.0015384615384615385 0.0
0.0011111111111111111 0.003076923076923077 0.0
0.0011111111111111111 0.004615384615384615 0.0
0.0011111111111111111 0.006153846153846154 0.0
0.0011111111111111111 0.007692307692307693 0.0
0.0011111111111111111 0.00923076923076923 0.0
0.0011111111111111111 0.010769230769230769 0.0
0.0011111111111111111 0.012307692307692308 0.0
0.0011111111111111111 0.013846153846153847 0.0
0.0011111111111111111 0.015384615384615385 0.0
0.0011111111111111111 0.016923076923076923 0.0
0.0011111111111111111 0.01846153846153846 0.0
0.0011111111111111111 0.02 0.0
0.0011111111111111111 0.020555555555555556 0.0
0.0011111111111111111 0.021111111111111112 0.0
0.0011111111111111111 0.021666666666666667 0.0
0.0011111111111111111 0.022222222222222223 0.0
0.0011111111111111111 0.02277777777777778 0.0
0.0011111111111111111 0.023333333333333334 0.0
0.0011111111111111111 0.02388888888888889 0.0
0.0011111111111111111 0.024444444444444446 0.0
0.0011111111111111111 0.025 0.0
0.0011111111111111111 0.036111111111111115 0.0
0.0011111111111111111 0.04722222222222222 0.0
0.0011111111111111111 0.058333333333333334 0.0
0.0011111111111111111 0.06944444444444445 0.0
0.0011111111111111111 0.08055555555555556 0.0
0.0011111111111111111 0.09166666666666667 0.0
0.0011111111111111111 0.10277777777777777 0.0
0.0011111111111111111 0.1138888888888889 0.0
0.0011111111111111111 0.125 0.0
0.0011111111111111111 0.12555555555555556 0.0
0.0011111111111111111 0.12611111111111112 0.0
0.0011111111111111111 0.12666666666666668 0.0
0.0011111111111111111 0.1272222222222222 0.0
0.0011111111111111111 0.12777777777777777 0.0
0.0011111111111111111 0.12833333333333333 0.0
0.0011111111111111111 0.1288888888888889 0.0
0.0011111111111111111 0.12944444444444445 0.0
0.0011111111111111111 0.13 0.0
0.0016666666666666666 0.0 0.0
0.0016666666666666666 0.0015384615384615385 0.0
0.0016666666666666666 0.003076923076923077 0.0
0.0016666666666666666 0.004615384615384615 0.0
0.0016666666666666666 0.006153846153846154 0.0
0.0016666666666666666 0.007692307692307693 0.0
0.0016666666666666666 0.00923076923076923 0.0
0.0016666666666666666 0.010769230769230769 0.0
0.0016666666666666666 0.012307692307692308 0.0
0.0016666666666666666 0.013846153846153847 0.0
0.0016666666666666666 0.015384615384615385 0.0
0.0016666666666666666 0.016923076923076923 0.0
0.0016666666666666666 0.01846153846153846 0.0
0.0016666666666666666 0.02 0.0
0.0016666666666666666 0.020555555555555556 0.0
0.0016666666666666666 0.021111111111111112 0.0
0.0016666666666666666 0.021666666666666667 0.0
0.0016666666666666666 0.022222222222222223 0.0
0.0016666666666666666 0.02277777777777778 0.0
0.0016666666666666666 0.023333333333333334 0.0
0.0016666666666666666 0.02388888888888889 0.0
0.0016666666666666666 0.024444444444444446 0.0
0.0016666666666666666 0.025 0.0
0.0016666666666666666 0.036111111111111115 0.0
0.0016666666666666666 0.04722222222222222 0.0
0.0016666666666666666 0.058333333333333334 0.0
0.0016666666666666666 0.06944444444444445 0.0
0.0016666666666666666 0.08055555555555556 0.0
0.0016666666666666666 0.09166666666666667 0.0
0.0016666666666666666 0.10277777777777777 0.0
0.0016666666666666666 0.1138888888888889 0.0
0.0016666666666666666 0.125 0.0
0.0016666666666666666 0.12555555555555556 0.0
0.0016666666666666666 0.12611111111111112 0.0
0.0016666666666666666 0.12666666666666668 0.0
0.0016666666666666666 0.1272222222222222 0.0
0.0016666666666666666 0.12777777777777777 0.0
0.0016666666666666666 0.12833333333333333 0.0
0.0016666666666666666 0.1288888888888889 0.0
0.0016666666666666666 0.12944444444444445 0.0
0.0016666666666666666 0.13 0.0
0.0022222222222222222 0.0 0.0
0.0022222222222222222 0.0015384615384615385 0.0
0.0022222222222222222 0.003076923076923077 0.0
0.0022222222222222222 0.004615384615384615 0.0
0.0022222222222222222 0.006153846153846154 0.0
0.0022222222222222222 0.007692307692307693 0.0
0.0022222222222222222 0.00923076923076923 0.0
0.0022222222222222222 0.010769230769230769 0.0
0.0022222222222222222 0.012307692307692308 0.0
0.0022222222222222222 0.013846153846153847 0.0
0.0022222222222222222 0.015384615384615385 0.0
0.0022222222222222222 0.016923076923076923 0.0
0.0022222222222222222 0.01846153846153846 0.0
0.0022222222222222222 0.02 0.0
0.0022222222222222222 0.020555555555555556 0.0
0.0022222222222222222 0.021111111111111112 0.0
0.0022222222222222222 0.021666666666666667 0.0
0.0022222222222222222 0.022222222222222223 0.0
0.0022222222222222222 0.02277777777777778 0.0
0.0022222222222222222 0.023333333333333334 0.0
0.0022222222222222222 0.02388888888888889 0.0
0.0022222222222222222 0.024444444444444446 0.0
0.0022222222222222222 0.025 0.0
0.0022222222222222222 0.036111111111111115 0.0
0.0022222222222222222 0.04722222222222222 0.0
0.0022222222222222222 0.058333333333333334 0.0
0.0022222222222222222 0.06944444444444445 0.0
0.0022222222222222222 0.08055555555555556 0.0
0.0022222222222222222 0.09166666666666667 0.0
0.0022222222222222222 0.10277777777777777 0.0
0.0022222222222222222 0.1138888888888889 0.0
0.0022222222222222222 0.125 0.0
0.0022222222222222222 0.12555555555555556 0.0
0.0022222222222222222 0.12611111111111112 0.0
0.0022222222222222222 0.12666666666666668 0.0
0.0022222222222222222 0.1272222222222222 0.0
0.0022222222222222222 0.12777777777777777 0.0
0.0022222222222222222 0.12833333333333333 0.0
0.0022222222222222222 0.1288888888888889 0.0
0.0022222222222222222 0.12944444444444445 0.0
0.0022222222222222222 0.13 0.0
0.002777777777777778 0.0 0.0
0.002777777777777778 0.0015384615384615385 0.0
0.002777777777777778 0.003076923076923077 0.0
0.002777777777777778 0.004615384615384615 0.0
0.002777777777777778 0.006153846153846154 0.0
0.002777777777777778 0.007692307692307693 0.0
0.002777777777777778 0.00923076923076923 0.0
0.002777777777777778 0.010769230769230769 0.0
0.002777777777777778 0.012307692307692308 0.0
0.002777777777777778 0.013846153846153847 0.0
0.002777777777777778 0.015384615384615385 0.0
0.002777777777777778 0.016923076923076923 0.0
0.002777777777777778 0.01846153846153846 0.0
0.002777777777777778 0.02 0.0
0.002777777777777778 0.020555555555555556 0.0
0.002777777777777778 0.021111111111111112 0.0
0.002777777777777778 0.021666666666666667 0.0
0.002777777777777778 0.022222222222222223 0.0
0.002777777777777778 0.02277777777777778 0.0
0.002777777777777778 0.023333333333333334 0.0
0.002777777777777778 0.02388888888888889 0.0
0.002777777777777778 0.024444444444444446 0.0
0.002777777777777778 0.025 0.0
0.002777777777777778 0.036111111111111115 0.0
0.002777777777777778 0.04722222222222222 0.0
0.002777777777777778 0.058333333333333334 0.0
0.002777777777777778 0.06944444444444445 0.0
0.002777777777777778 0.08055555555555556 0.0
0.002777777777777778 0.09166666666666667 0.0
0.002777777777777778 0.10277777777777777 0.0
0.002777777777777778 0.1138888888888889 0.0
0.002777777777777778 0.125 0.0
0.002777777777777778 0.12555555555555556 0.0
0.002777777777777778 0.12611111111111112 0.0
[...]
POINT_DATA 1353
SCALARS Temperatura float 1
LOOKUP_TABLE default
124.99331110985051
124.4870085590775
123.98465186653763
123.485838078603
122.99017620559911
122.49717467019912
122.00619448844803
121.51638711090516
121.02660843691078
120.53524923925703
120.0400564728175
119.53709887987567
119.021653366574
118.46513170686421
117.7299050481775
117.04781261630855
116.38227659050685
115.72705713366732
115.07832816151797
114.43367217744583
113.79136548821972
113.15016143502663
112.5092139932502
101.37001433723432
97.33147366460544
96.14225049709526
95.73878786413232
95.60040770485259
95.51049104313562
95.34894550922387
94.8340316611429
93.43362492834962
93.35490542382044
93.27657591945339
93.19869546167389
93.12130474842701
93.04443168177018
92.96809558706869
92.89230991634918
92.81708366141976
92.74242190700585
125.02459012715191
124.51818469414779
124.01569887100428
123.51676220247268
123.0209844018502
122.52787736946392
122.03680532481066
121.54692612432092
121.0570996603846
120.5657539133685
120.07056800164098
119.56815197109148
119.05174723478909
118.50692880257733
117.81812795808307
117.14009828719507
116.47682836721104
115.82259445892396
115.17434073433654
114.52985876724857
113.88750988918915
113.2460730716708
112.60470235021829
101.44104130016206
97.40940248627962
96.21989671482423
95.8167157749726
95.67839112609892
95.5885235715589
95.42694954762938
94.91292236338313
93.50926822726764
93.43042676791367
93.35198804894861
93.27400787506411
93.19652408790462
93.11956248487054
93.04314110967421
92.96727280484033
92.89196637444562
92.81722689773846
125.05596301750788
124.54951445936355
124.04694474208523
123.54793486764224
123.0521042185675
122.55897352457181
122.06791804767666
121.57811137340327
121.08844209357574
120.59737703642033
120.10271669334904
119.60120647498141
119.08679742142061
118.55352776011696
117.8849357340236
117.22107571967354
116.564214542139
115.91388672450975
115.26821183026509
114.62550461422357
113.98432504267961
113.34350629565803
112.7021879673073
101.48754302912033
97.48512938815976
96.29710271554073
95.8956232229739
95.75773760631301
95.66820735232565
95.50686484884265
94.99658155114616
93.58601210986347
93.50696906737919
93.42836637632348
93.35024931345063
93.27264669379566
93.19557790696126
93.1190573134544
93.04309619047449
92.96770302107412
92.89288302551576
125.08745865036052
124.58099837768788
124.07838814397965
123.57935361853896
123.08353207215684
122.59045829397738
122.09952546437786
121.60993381739759
121.12061530072219
120.63011083223708
120.13638029305653
119.63641248048019
119.12567648567202
118.60189696290962
117.94723049621436
117.29499481599298
116.64656932661987
116.00206155412484
115.36066534557233
114.72117449789076
114.08234274780547
113.44302243852384
112.80227899701276
101.50900452857495
97.5589072003734
96.37379993955616
95.97553607743188
95.83844031668087
95.74955406966276
95.58866209844854
95.0850707174193
93.6638093820041
93.58449602819131
93.50568588578697
93.42740416641395
93.34966335274213
93.2724721565514
93.19583963796138
93.11977555531408
93.04428877125649
92.96938530409818
125.1190914351106
124.61263921552609
124.11002649672565
123.61101428840466
123.11526201214527
122.62232348622625
122.13161618206317
121.64237645510707
121.15359403269298
120.66391167308163
120.1714739101784
119.6736715348433
119.16732143310708
118.65162611283876
118.00813205652346
117.36605233310203
116.72614517243045
116.0885200900716
115.4526754152943
114.81768390561658
114.18238295641122
113.5455382401924
112.9060135052044
101.50456721356514
97.63116882272482
96.44986968765556
96.05649873113593
95.92048604764257
95.83258286643705
95.67228986246857
95.17849118408547
93.7425769791269
93.66294624237801
93.58390675753976
93.50544956865784
93.42756165910322
93.35023745235615
93.27348112290086
93.19730305240407
93.12171470514343
93.04672437738213
125.15086833145936
124.644438455695
124.14185627445184
123.64291093747546
123.14728576360909
122.65455779778941
122.16417444311348
121.67541629717516
121.18734369412176
120.69872011265515
120.20790412314066
119.71274924986027
119.2110653392402
118.70259726263725
118.06891096807634
117.43614747036371
116.80468805354997
116.17452723889059
115.54522803980453
114.91594211946584
114.28545974787389
113.6522998330471
113.01490590973597
101.47300134962063
97.70254291303327
96.52513573927915
96.13857713514176
96.00385379903904
95.91732158155263
95.75767260610844
95.27698741667368
93.82218978622946
93.74223384200766
93.66298009571747
93.58436291782303
93.50633225408039
93.42886777358575
93.35197383059783
93.27566745786423
93.1999669990683
93.12488547316302
125.18279166293236
124.67639543907534
124.17387270696334
123.6750359023264
123.17959280771781
122.6871469770667
122.19718048848662
121.70902492236554
121.22182116704832
120.73446677185638
120.24555500024553
119.75338970777085
119.25647469201287
118.75472908404011
118.13014313054504
117.50626261864625
116.88324781580134
116.26100417648925
115.63911180242589
115.01676246916979
114.39263583926372
113.76483623123013
113.13103029724947
101.41266187747844
97.77387774693064
96.59935329425214
96.2218633399439
96.0885126660106
96.00380860154694
95.84470770656989
95.3807522360274
93.9024701869044
93.82225202050418
93.74286167853589
93.66413663768712
93.58597946360668
93.50836317814927
93.43130965757176
93.35485315194005
93.27902507627647
93.20384632000962
125.21486041728339
124.70850727965939
124.20606954124668
123.7073798266341
123.21217049209969
122.72007403557878
122.23061097677665
121.74316906328139
121.25697663048054
120.77107373738586
120.28429569648108
119.79535359970943
119.30324166101032
118.8079283891995
118.19208356866017
117.576890300264
116.96239461571167
116.34847339568402
115.73476819582113
115.12059497665233
114.50476571878289
113.88483284388784
113.2571674652184
101.32141948199666
97.84627591704526
96.67219328731862
96.30648190800754
96.17441885000102
96.09209548252807
95.9332611401128
95.49003485006997
93.98317033949814
93.90288735949468
93.82354002520046
93.74481360262573
93.6665320410344
93.58873215088276
93.51147892830313
93.43483724559827
93.35885821205451
93.283573631459
125.24707095109756
124.74076899552061
124.23843893701556
123.7399316930199
123.24500416314304
122.75331949808235
122.26443942012861
121.77781138686774
121.29275512917698
120.8084565771652
120.32398940843206
119.83842502135552
119.35112501043679
118.86208278620839
118.25480737962255
117.6482317277028
117.04235903373899
116.43709596251361
115.83221429547505
115.22729786774767
114.62161367453633
114.01396259082912
113.39706239052592
101.19655285949801
97.92114436103752
96.74322053501228
96.39259876248933
96.26151155578444
96.18225050574428
96.02316161948681
95.605152145971
94.06394621990094
93.98396018892988
93.9052194455679
93.82650648056838
93.74804621184377
93.6699876664302
93.59246496960462
93.51558410766624
93.43942030249681
93.3640179914095
125.27941743733703
124.7731736929257
124.27097146191393
123.77267887519405
123.27807731583931
122.7868616749136
122.29863664957965
121.81291133490862
121.32909801786482
120.84652692638112
120.36449921994048
119.88240804728092
119.39991836255875
118.9170623663723
118.31828160818529
117.72030737290652
117.12313989070176
116.52674980151929
115.93108011161695
115.33606653657257
114.74169276494095
114.14811027997438
99.91975290522092
99.91975290522092
99.91975290522092
99.91975290522092
99.91975290522092
99.91975290522092
99.91975290522092
99.91975290522092
99.91975290522092
99.91975290522092
94.06674015027484
93.98824054082507
93.90938855377958
93.83058877009516
93.75213370886206
93.6742336935783
93.5970371981769
93.52064299622616
93.44510741028462
125.90918914305638
125.40467934043873
124.90671231938894
124.41536905526489
123.93078858309147
123.4531813324896
122.9828503232794
122.52022155501567
122.06588486361481
121.62064586050089
121.18558741226786
120.76213710907922
120.35214708512271
119.95803008276667
119.48189117917626
119.00964501788128
118.541938817647
118.07946238198159
117.62295635558111
117.17321644025526
116.7310891359481
116.29745080064713
99.91975290522092
99.91975290522092
99.91975290522092
99.91975290522092
99.91975290522092
99.91975290522092
99.91975290522092
99.91975290522092
99.91975290522092
99.91975290522092
95.64390528739696
95.52623305792225
95.41485632671629
95.30940055695305
95.20957142746504
95.11514146087515
95.02594050433594
94.94184948536734
94.86279641363366
126.47999772923932
125.97662893454029
125.48113639127239
124.99357473357554
124.51402979991533
124.04261646581584
123.5794742233094
123.12475920905361
122.67863082603786
122.24123049502131
121.81264961449108
121.39288305119061
120.98176011533029
120.57883183677416
120.08457398345764
119.59189105810526
119.10056202539675
118.61033708905383
118.12092954608939
117.63200802652618
117.14319018398973
116.65403996810879
99.91975290522092
99.91975290522092
99.91975290522092
99.91975290522092
99.91975290522092
99.91975290522092
99.91975290522092
99.91975290522092
99.91975290522092
99.91975290522092
96.07744101208127
95.98695746205024
95.89783799663505
95.81027902776225
95.72443418496796
95.64042106289519
95.5583261957851
95.47820852239205
95.40010169213485
126.93093644002505
126.42788577276387
125.93258852497168
125.44505186923914
124.9652822481179
124.49328363278391
124.02905535092766
123.57258980793515
123.12387068356126
122.68287256805066
122.2495635068316
121.82391274209223
121.40590810219926
120.99559279432374
120.49228891912516
119.99086424881985
119.49137002331726
118.99386885971012
118.49843880293407
118.00517762707138
117.51420719034101
117.0256773558112
99.91975290522092
99.91975290522092
99.91975290522092
99.91975290522092
99.91975290522092
99.91975290522092
99.91975290522092
99.91975290522092
99.91975290522092
99.91975290522092
96.23696663452378
96.14612865287353
96.05723132320996
95.97021238553221
95.88502450880435
95.80163222584515
95.72000965231358
95.64013886786263
95.5620088291031
127.25841621033608
126.75544528891761
126.25984542033515
125.7716183469939
125.2907630491282
124.8172759481017
124.35115122557357
123.8923812698302
123.44095720542182
122.99686935069674
122.56010725732835
122.13065862906024
121.7085055460035
121.2936143787427
120.78424598676337
120.27661766950841
119.77071082982387
119.26650284855167
118.76396548988541
118.26306310337748
117.76375063408021
117.26597152760228
99.91975290522092
99.91975290522092
99.91975290522092
99.91975290522092
99.91975290522092
99.91975290522092
99.91975290522092
99.91975290522092
99.91975290522092
99.91975290522092
96.28560688668054
96.1968205781901
96.10952207657589
96.02373244484582
95.93946702583983
95.8567366643625
95.77554861250944
95.69590717246258
95.61781412706476
127.47846402417287
126.97553437062295
126.47969565194667
125.99094998867598
125.50929700556695
125.03473379971278
124.56725487504897
124.10685202392581
123.65351414242687
123.20722698763059
122.76797293384509
122.33573089616024
121.91047688313132
121.49218635794428
120.97841575383225
120.4663671241458
119.95603950730714
119.44743313475527
118.94054999381082
118.4353944928052
117.9319742419151
117.43030094526722
99.91975290522092
99.91975290522092
99.91975290522092
99.91975290522092
99.91975290522092
99.91975290522092
99.91975290522092
99.91975290522092
99.91975290522092
99.91975290522092
96.30225645482965
96.21362872336775
96.12652249860115
96.04093045627212
95.95684699569726
95.87426778166288
95.79318940831469
95.71360916199455
95.63552486350467
127.6049850678152
127.10207754991202
126.60609661481898
126.11704430479418
125.63492021703286
125.15972150338987
124.69144287784887
124.23007663993124
123.77561272393046
123.32803878264421
122.88734030584425
122.45350074502613
122.02650152420586
121.60632156834828
121.09010711251238
120.57559367159178
120.06277677914427
119.55165152258016
119.04221234536858
118.53445280240902
118.02836525780182
117.52394051791396
99.91975290522092
99.91975290522092
99.91975290522092
99.91975290522092
99.91975290522092
99.91975290522092
99.91975290522092
99.91975290522092
99.91975290522092
99.91975290522092
96.30738508979388
96.21892859453916
96.13195426835239
96.04646294013425
95.96245476762712
95.87992941087359
95.7988861575628
95.71932401040608
95.6412417446132
127.64625109717929
127.14335056748139
126.64732258298073
126.15816925407213
125.67589033001153
125.20048320803322
124.73194294417681
124.27026226180783
123.81543155180661
123.36743885688823
122.92626983371886
122.49190769773082
122.06433320138693
121.64352483382503
121.12649500128913
120.61116046747513
120.09751792903198
119.58556424389336
119.07529654478006
118.56671238363495
118.05980991553713
117.55458812958847
99.91975290522092
99.91975290522092
99.91975290522092
99.91975290522092
99.91975290522092
99.91975290522092
99.91975290522092
99.91975290522092
99.91975290522092
99.91975290522092
96.30858650332848
96.22014158022785
96.13318310479427
96.04770871979461
95.9637163850372
95.88120427256986
95.80017069176535
95.72061403758535
95.64253275684749
127.6049850678159
127.10207754991272
126.60609661481966
126.11704430479482
125.63492021703341
125.15972150339033
124.69144287784931
124.23007663993175
123.775612723931
123.32803878264478
122.88734030584484
122.45350074502676
122.02650152420651
121.60632156834893
121.09010711251307
120.57559367159244
120.06277677914497
119.55165152258078
119.04221234536921
118.53445280240965
118.02836525780245
117.52394051791462
99.91975290522092
99.91975290522092
99.91975290522092
99.91975290522092
99.91975290522092
99.91975290522092
99.91975290522092
99.91975290522092
99.91975290522092
99.91975290522092
96.30738508979483
96.21892859454015
96.13195426835338
96.04646294013524
95.96245476762812
95.8799294108746
95.79888615756383
95.71932401040709
95.64124174461418
127.47846402417404
126.97553437062415
126.47969565194785
125.99094998867712
125.50929700556809
125.0347337997139
124.56725487505004
124.10685202392689
123.65351414242787
123.20722698763154
122.76797293384607
122.33573089616125
121.91047688313236
121.49218635794534
120.97841575383335
120.46636712414686
119.95603950730822
119.44743313475634
118.94054999381189
118.4353944928063
117.93197424191621
117.4303009452683
99.91975290522092
99.91975290522092
99.91975290522092
99.91975290522092
99.91975290522092
99.91975290522092
99.91975290522092
99.91975290522092
99.91975290522092
99.91975290522092
96.30225645483186
96.21362872337
96.12652249860342
96.04093045627447
95.95684699569962
95.87426778166525
95.79318940831708
95.71360916199696
95.63552486350709
127.25841621033686
126.75544528891835
126.25984542033588
125.77161834699459
125.29076304912887
124.81727594810232
124.35115122557414
123.89238126983071
123.44095720542235
122.9968693506973
122.56010725732901
122.13065862906095
121.70850554600423
121.29361437874346
120.78424598676416
120.27661766950924
119.77071082982465
119.26650284855239
118.76396548988598
118.26306310337792
117.76375063408058
117.2659715276026
99.91975290522092
99.91975290522092
99.91975290522092
99.91975290522092
99.91975290522092
99.91975290522092
99.91975290522092
99.91975290522092
99.91975290522092
99.91975290522092
96.28560688668614
96.19682057819585
96.10952207658174
96.02373244485169
95.93946702584567
95.85673666436828
95.7755486125151
95.69590717246808
95.61781412707019
126.93093644002565
126.42788577276451
125.93258852497236
125.44505186923986
124.96528224811863
124.49328363278465
124.0290553509284
123.57258980793588
123.12387068356203
122.6828725680514
122.24956350683229
121.82391274209286
121.40590810219987
120.99559279432432
120.49228891912573
119.99086424882034
119.4913700233178
118.99386885971072
118.4984388029348
118.00517762707219
117.51420719034184
117.02567735581201
99.91975290522092
99.91975290522092
99.91975290522092
99.91975290522092
99.91975290522092
99.91975290522092
99.91975290522092
99.91975290522092
99.91975290522092
99.91975290522092
96.23696663452832
96.14612865287813
96.05723132321467
95.97021238553701
95.88502450880925
95.80163222585011
95.7200096523186
95.64013886786775
95.56200882910825
126.47999772923893
125.9766289345399
125.48113639127197
124.99357473357506
124.51402979991484
124.04261646581539
123.57947422330895
123.12475920905315
122.67863082603738
122.2412304950209
121.81264961449082
121.39288305119044
120.9817601153301
120.57883183677401
120.08457398345749
119.59189105810512
119.1005620253966
118.61033708905371
118.1209295460892
117.63200802652594
117.14319018398946
116.65403996810845
99.91975290522092
99.91975290522092
99.91975290522092
99.91975290522092
99.91975290522092
99.91975290522092
99.91975290522092
99.91975290522092
99.91975290522092
99.91975290522092
96.07744101208463
95.98695746205367
95.89783799663849
95.81027902776566
95.72443418497137
95.6404210628986
95.55832619578845
95.47820852239536
95.40010169213816
125.90918914305553
125.40467934043788
124.90671231938806
124.41536905526405
123.93078858309062
123.4531813324888
122.98285032327864
122.52022155501488
122.06588486361409
121.62064586050023
121.18558741226737
120.76213710907881
120.35214708512231
119.9580300827663
119.48189117917593
119.00964501788096
118.54193881764668
118.07946238198127
117.62295635558078
117.17321644025488
116.73108913594768
116.29745080064669
99.91975290522092
99.91975290522092
99.91975290522092
99.91975290522092
99.91975290522092
99.91975290522092
99.91975290522092
99.91975290522092
99.91975290522092
99.91975290522092
95.64390528739928
95.52623305792461
95.41485632671873
95.30940055695557
95.20957142746757
95.11514146087771
95.02594050433851
94.94184948536997
94.86279641363627
125.27941743733582
124.77317369292453
124.27097146191292
123.77267887519315
123.2780773158386
122.78686167491298
122.29863664957911
121.81291133490821
121.32909801786441
120.84652692638068
120.36449921993993
119.88240804728034
119.39991836255828
118.9170623663719
118.31828160818505
117.72030737290648
117.12313989070188
116.5267498015196
115.9310801116174
115.33606653657313
114.74169276494159
114.14811027997504
99.91975290522092
99.91975290522092
99.91975290522092
99.91975290522092
99.91975290522092
99.91975290522092
99.91975290522092
99.91975290522092
99.91975290522092
99.91975290522092
94.06674015027738
93.9882405408277
93.90938855378224
93.83058877009786
93.75213370886482
93.67423369358109
93.59703719817966
93.52064299622883
93.44510741028732
125.24707095109632
124.74076899551932
124.23843893701452
123.73993169301903
123.24500416314238
122.75331949808178
122.26443942012801
121.77781138686724
121.29275512917663
120.80845657716476
120.32398940843152
119.83842502135484
119.35112501043623
118.86208278620803
118.2548073796223
117.64823172770276
117.04235903373916
116.43709596251394
115.83221429547557
115.2272978677483
114.62161367453699
114.01396259082982
113.39706239052661
101.1965528595005
97.92114436103716
96.74322053501194
96.39259876249105
96.26151155578512
96.18225050574524
96.02316161948768
95.60515214596961
94.06394621990336
93.98396018893234
93.90521944557051
93.82650648057101
93.74804621184637
93.66998766643286
93.59246496960732
93.51558410766889
93.43942030249944
93.36401799141213
125.21486041728211
124.70850727965811
124.20606954124558
123.70737982663317
123.21217049209906
122.72007403557815
122.23061097677616
121.74316906328089
121.25697663048017
120.77107373738538
120.2842956964805
119.79535359970875
119.30324166100975
118.80792838919919
118.19208356866
117.57689030026394
116.96239461571186
116.34847339568432
115.73476819582162
115.12059497665297
114.5047657187836
113.88483284388866
113.25716746521928
101.32141948199914
97.84627591704506
96.67219328731838
96.30648190800929
96.17441885000176
96.09209548252896
95.93326114011383
95.49003485006854
93.98317033950063
93.90288735949716
93.82354002520293
93.74481360262821
93.66653204103694
93.5887321508853
93.51147892830575
93.4348372456008
93.3588582120571
93.28357363146156
125.18279166293098
124.67639543907414
124.17387270696226
123.6750359023254
123.17959280771709
122.68714697706616
122.19718048848598
121.70902492236499
121.22182116704789
120.7344667718559
120.24555500024496
119.75338970777018
119.2564746920124
118.75472908403981
118.13014313054491