# vtk DataFile Version 2.0
Niestacjonarne zagadnienie cieplne - ogrzewanie wody w garnku stalowym
ASCII
DATASET UNSTRUCTURED_GRID
POINTS 1353 float
0.0 0.0 0.0
0.0 0.0015384615384615385 0.0
0.0 0.003076923076923077 0.0
0.0 0.004615384615384615 0.0
0.0 0.006153846153846154 0.0
0.0 0.007692307692307693 0.0
0.0 0.00923076923076923 0.0
0.0 0.010769230769230769 0.0
0.0 0.012307692307692308 0.0
0.0 0.013846153846153847 0.0
0.0 0.015384615384615385 0.0
0.0 0.016923076923076923 0.0
0.0 0.01846153846153846 0.0
0.0 0.02 0.0
0.0 0.020555555555555556 0.0
0.0 0.021111111111111112 0.0
0.0 0.021666666666666667 0.0
0.0 0.022222222222222223 0.0
0.0 0.02277777777777778 0.0
0.0 0.023333333333333334 0.0
0.0 0.02388888888888889 0.0
0.0 0.024444444444444446 0.0
0.0 0.025 0.0
0.0 0.036111111111111115 0.0
0.0 0.04722222222222222 0.0
0.0 0.058333333333333334 0.0
0.0 0.06944444444444445 0.0
0.0 0.08055555555555556 0.0
0.0 0.09166666666666667 0.0
0.0 0.10277777777777777 0.0
0.0 0.1138888888888889 0.0
0.0 0.125 0.0
0.0 0.12555555555555556 0.0
0.0 0.12611111111111112 0.0
0.0 0.12666666666666668 0.0
0.0 0.1272222222222222 0.0
0.0 0.12777777777777777 0.0
0.0 0.12833333333333333 0.0
0.0 0.1288888888888889 0.0
0.0 0.12944444444444445 0.0
0.0 0.13 0.0
5.555555555555556E-4 0.0 0.0
5.555555555555556E-4 0.0015384615384615385 0.0
5.555555555555556E-4 0.003076923076923077 0.0
5.555555555555556E-4 0.004615384615384615 0.0
5.555555555555556E-4 0.006153846153846154 0.0
5.555555555555556E-4 0.007692307692307693 0.0
5.555555555555556E-4 0.00923076923076923 0.0
5.555555555555556E-4 0.010769230769230769 0.0
5.555555555555556E-4 0.012307692307692308 0.0
5.555555555555556E-4 0.013846153846153847 0.0
5.555555555555556E-4 0.015384615384615385 0.0
5.555555555555556E-4 0.016923076923076923 0.0
5.555555555555556E-4 0.01846153846153846 0.0
5.555555555555556E-4 0.02 0.0
5.555555555555556E-4 0.020555555555555556 0.0
5.555555555555556E-4 0.021111111111111112 0.0
5.555555555555556E-4 0.021666666666666667 0.0
5.555555555555556E-4 0.022222222222222223 0.0
5.555555555555556E-4 0.02277777777777778 0.0
5.555555555555556E-4 0.023333333333333334 0.0
5.555555555555556E-4 0.02388888888888889 0.0
5.555555555555556E-4 0.024444444444444446 0.0
5.555555555555556E-4 0.025 0.0
5.555555555555556E-4 0.036111111111111115 0.0
5.555555555555556E-4 0.04722222222222222 0.0
5.555555555555556E-4 0.058333333333333334 0.0
5.555555555555556E-4 0.06944444444444445 0.0
5.555555555555556E-4 0.08055555555555556 0.0
5.555555555555556E-4 0.09166666666666667 0.0
5.555555555555556E-4 0.10277777777777777 0.0
5.555555555555556E-4 0.1138888888888889 0.0
5.555555555555556E-4 0.125 0.0
5.555555555555556E-4 0.12555555555555556 0.0
5.555555555555556E-4 0.12611111111111112 0.0
5.555555555555556E-4 0.12666666666666668 0.0
5.555555555555556E-4 0.1272222222222222 0.0
5.555555555555556E-4 0.12777777777777777 0.0
5.555555555555556E-4 0.12833333333333333 0.0
5.555555555555556E-4 0.1288888888888889 0.0
5.555555555555556E-4 0.12944444444444445 0.0
5.555555555555556E-4 0.13 0.0
0.0011111111111111111 0.0 0.0
0.0011111111111111111 0.0015384615384615385 0.0
0.0011111111111111111 0.003076923076923077 0.0
0.0011111111111111111 0.004615384615384615 0.0
0.0011111111111111111 0.006153846153846154 0.0
0.0011111111111111111 0.007692307692307693 0.0
0.0011111111111111111 0.00923076923076923 0.0
0.0011111111111111111 0.010769230769230769 0.0
0.0011111111111111111 0.012307692307692308 0.0
0.0011111111111111111 0.013846153846153847 0.0
0.0011111111111111111 0.015384615384615385 0.0
0.0011111111111111111 0.016923076923076923 0.0
0.0011111111111111111 0.01846153846153846 0.0
0.0011111111111111111 0.02 0.0
0.0011111111111111111 0.020555555555555556 0.0
0.0011111111111111111 0.021111111111111112 0.0
0.0011111111111111111 0.021666666666666667 0.0
0.0011111111111111111 0.022222222222222223 0.0
0.0011111111111111111 0.02277777777777778 0.0
0.0011111111111111111 0.023333333333333334 0.0
0.0011111111111111111 0.02388888888888889 0.0
0.0011111111111111111 0.024444444444444446 0.0
0.0011111111111111111 0.025 0.0
0.0011111111111111111 0.036111111111111115 0.0
0.0011111111111111111 0.04722222222222222 0.0
0.0011111111111111111 0.058333333333333334 0.0
0.0011111111111111111 0.06944444444444445 0.0
0.0011111111111111111 0.08055555555555556 0.0
0.0011111111111111111 0.09166666666666667 0.0
0.0011111111111111111 0.10277777777777777 0.0
0.0011111111111111111 0.1138888888888889 0.0
0.0011111111111111111 0.125 0.0
0.0011111111111111111 0.12555555555555556 0.0
0.0011111111111111111 0.12611111111111112 0.0
0.0011111111111111111 0.12666666666666668 0.0
0.0011111111111111111 0.1272222222222222 0.0
0.0011111111111111111 0.12777777777777777 0.0
0.0011111111111111111 0.12833333333333333 0.0
0.0011111111111111111 0.1288888888888889 0.0
0.0011111111111111111 0.12944444444444445 0.0
0.0011111111111111111 0.13 0.0
0.0016666666666666666 0.0 0.0
0.0016666666666666666 0.0015384615384615385 0.0
0.0016666666666666666 0.003076923076923077 0.0
0.0016666666666666666 0.004615384615384615 0.0
0.0016666666666666666 0.006153846153846154 0.0
0.0016666666666666666 0.007692307692307693 0.0
0.0016666666666666666 0.00923076923076923 0.0
0.0016666666666666666 0.010769230769230769 0.0
0.0016666666666666666 0.012307692307692308 0.0
0.0016666666666666666 0.013846153846153847 0.0
0.0016666666666666666 0.015384615384615385 0.0
0.0016666666666666666 0.016923076923076923 0.0
0.0016666666666666666 0.01846153846153846 0.0
0.0016666666666666666 0.02 0.0
0.0016666666666666666 0.020555555555555556 0.0
0.0016666666666666666 0.021111111111111112 0.0
0.0016666666666666666 0.021666666666666667 0.0
0.0016666666666666666 0.022222222222222223 0.0
0.0016666666666666666 0.02277777777777778 0.0
0.0016666666666666666 0.023333333333333334 0.0
0.0016666666666666666 0.02388888888888889 0.0
0.0016666666666666666 0.024444444444444446 0.0
0.0016666666666666666 0.025 0.0
0.0016666666666666666 0.036111111111111115 0.0
0.0016666666666666666 0.04722222222222222 0.0
0.0016666666666666666 0.058333333333333334 0.0
0.0016666666666666666 0.06944444444444445 0.0
0.0016666666666666666 0.08055555555555556 0.0
0.0016666666666666666 0.09166666666666667 0.0
0.0016666666666666666 0.10277777777777777 0.0
0.0016666666666666666 0.1138888888888889 0.0
0.0016666666666666666 0.125 0.0
0.0016666666666666666 0.12555555555555556 0.0
0.0016666666666666666 0.12611111111111112 0.0
0.0016666666666666666 0.12666666666666668 0.0
0.0016666666666666666 0.1272222222222222 0.0
0.0016666666666666666 0.12777777777777777 0.0
0.0016666666666666666 0.12833333333333333 0.0
0.0016666666666666666 0.1288888888888889 0.0
0.0016666666666666666 0.12944444444444445 0.0
0.0016666666666666666 0.13 0.0
0.0022222222222222222 0.0 0.0
0.0022222222222222222 0.0015384615384615385 0.0
0.0022222222222222222 0.003076923076923077 0.0
0.0022222222222222222 0.004615384615384615 0.0
0.0022222222222222222 0.006153846153846154 0.0
0.0022222222222222222 0.007692307692307693 0.0
0.0022222222222222222 0.00923076923076923 0.0
0.0022222222222222222 0.010769230769230769 0.0
0.0022222222222222222 0.012307692307692308 0.0
0.0022222222222222222 0.013846153846153847 0.0
0.0022222222222222222 0.015384615384615385 0.0
0.0022222222222222222 0.016923076923076923 0.0
0.0022222222222222222 0.01846153846153846 0.0
0.0022222222222222222 0.02 0.0
0.0022222222222222222 0.020555555555555556 0.0
0.0022222222222222222 0.021111111111111112 0.0
0.0022222222222222222 0.021666666666666667 0.0
0.0022222222222222222 0.022222222222222223 0.0
0.0022222222222222222 0.02277777777777778 0.0
0.0022222222222222222 0.023333333333333334 0.0
0.0022222222222222222 0.02388888888888889 0.0
0.0022222222222222222 0.024444444444444446 0.0
0.0022222222222222222 0.025 0.0
0.0022222222222222222 0.036111111111111115 0.0
0.0022222222222222222 0.04722222222222222 0.0
0.0022222222222222222 0.058333333333333334 0.0
0.0022222222222222222 0.06944444444444445 0.0
0.0022222222222222222 0.08055555555555556 0.0
0.0022222222222222222 0.09166666666666667 0.0
0.0022222222222222222 0.10277777777777777 0.0
0.0022222222222222222 0.1138888888888889 0.0
0.0022222222222222222 0.125 0.0
0.0022222222222222222 0.12555555555555556 0.0
0.0022222222222222222 0.12611111111111112 0.0
0.0022222222222222222 0.12666666666666668 0.0
0.0022222222222222222 0.1272222222222222 0.0
0.0022222222222222222 0.12777777777777777 0.0
0.0022222222222222222 0.12833333333333333 0.0
0.0022222222222222222 0.1288888888888889 0.0
0.0022222222222222222 0.12944444444444445 0.0
0.0022222222222222222 0.13 0.0
0.002777777777777778 0.0 0.0
0.002777777777777778 0.0015384615384615385 0.0
0.002777777777777778 0.003076923076923077 0.0
0.002777777777777778 0.004615384615384615 0.0
0.002777777777777778 0.006153846153846154 0.0
0.002777777777777778 0.007692307692307693 0.0
0.002777777777777778 0.00923076923076923 0.0
0.002777777777777778 0.010769230769230769 0.0
0.002777777777777778 0.012307692307692308 0.0
0.002777777777777778 0.013846153846153847 0.0
0.002777777777777778 0.015384615384615385 0.0
0.002777777777777778 0.016923076923076923 0.0
0.002777777777777778 0.01846153846153846 0.0
0.002777777777777778 0.02 0.0
0.002777777777777778 0.020555555555555556 0.0
0.002777777777777778 0.021111111111111112 0.0
0.002777777777777778 0.021666666666666667 0.0
0.002777777777777778 0.022222222222222223 0.0
0.002777777777777778 0.02277777777777778 0.0
0.002777777777777778 0.023333333333333334 0.0
0.002777777777777778 0.02388888888888889 0.0
0.002777777777777778 0.024444444444444446 0.0
0.002777777777777778 0.025 0.0
0.002777777777777778 0.036111111111111115 0.0
0.002777777777777778 0.04722222222222222 0.0
0.002777777777777778 0.058333333333333334 0.0
0.002777777777777778 0.06944444444444445 0.0
0.002777777777777778 0.08055555555555556 0.0
0.002777777777777778 0.09166666666666667 0.0
0.002777777777777778 0.10277777777777777 0.0
0.002777777777777778 0.1138888888888889 0.0
0.002777777777777778 0.125 0.0
0.002777777777777778 0.12555555555555556 0.0
0.002777777777777778 0.12611111111111112 0.0
[...]
POINT_DATA 1353
SCALARS Temperatura float 1
LOOKUP_TABLE default
77.4374657285527
76.89303741719564
76.3547061941585
75.82211036419756
75.29493014931275
74.77278138344636
74.25517923993455
73.74149453929647
73.23089691359212
72.72225164510077
72.21400656359387
71.70363243299204
71.18804128098218
70.65172755473658
69.96359257690177
69.30319321156708
68.6514422826761
68.00486908234157
67.36125453334252
66.71912476601088
66.07740120265248
65.43531375549244
64.79239156040968
53.531859573576114
49.44195266090774
48.23967351145714
47.83403224683114
47.70264840439188
47.63954816002197
47.5592680641884
47.31957193432174
46.67816055770571
46.64433196992778
46.611083421270855
46.57849846321156
46.54664997473104
46.51559986323876
46.485398859709555
46.45608636772427
46.427690345913334
46.40022722023135
77.45459322681457
76.91004986035358
76.37157625431597
75.83884301653354
75.31153071003675
74.78925799028956
74.2715422872987
73.75775847047592
73.24707917082789
72.73839004730615
72.23010582203382
71.7199774256381
71.20387451560848
70.67355525149362
70.00912745566784
69.35063432249528
68.69986365080989
68.05360803090095
67.41003912566799
66.76778149205052
66.12578749642596
65.48328448816
64.83978472310521
53.5540590171777
49.47121460663914
48.268635880535896
47.86328079893079
47.73194911893808
47.66888045619629
47.58858411959984
47.34933521424289
46.70621431132534
46.67230314366098
46.6389777532639
46.60632199014996
46.57440894673799
46.543300688386765
46.513048069563254
46.48369059234277
46.45525628882623
46.42776162907562
77.47181882431356
76.92721851614549
76.3886426963418
75.85581282962465
75.32841800886564
74.80608380215742
74.28833537709374
73.77455802456346
73.26394209673157
72.7553971725226
72.24740570449268
71.73779509458605
71.2228081285597
70.69853146171688
70.04458619181953
69.393463063774
68.74606749854071
68.10189126513502
67.45969515637975
66.81834625284543
66.17686052302987
65.53444440011987
64.89054912598583
53.55190786736853
49.49887547026728
48.297750825880534
47.89411531179584
47.76319876305893
47.700358145003534
47.62017029212092
47.38276838712754
46.73581518255999
46.70172507958825
46.66823689753825
46.6354351768736
46.6033934685917
46.57217416275959
46.54182837221683
46.51239581612706
46.48390469586976
46.45637158490614
77.48917202791105
76.9445445688899
76.40590492200357
75.87301822552416
75.34558958970148
74.82325546603222
74.30555364978767
73.79188701431059
73.28147314387628
72.77326629344016
72.26583972735477
71.75715789667342
71.24425652438394
70.72511257413021
70.07866721903635
69.43386634093058
68.79115816289772
68.15032009665119
67.51064238142935
66.87119597311538
66.2310309012747
65.58927608240087
64.94524480512186
53.52489405815531
49.525190583999084
48.326949788090886
47.92656224956255
47.79639251033206
47.7339893606694
47.6540133731072
47.4199026428618
46.766949966469184
46.73258357554751
46.698845998669896
46.66582274689159
46.63358796352868
46.60220445804482
46.57172371652201
46.54218581022034
46.513619228546894
46.48604072244376
77.50666830187683
76.9620318798093
76.42336157102916
75.89045649274192
75.36304134916162
74.84076730553949
74.32318928993718
73.8097341114346
73.29965590551922
72.79197040853384
72.28535818259506
71.77800700983906
71.26766497962366
70.7530851635118
70.11296920358143
69.4739956093171
68.83629450807456
68.19963674753141
67.5634442433412
66.9268781220499
66.28893884232113
65.64857566214589
65.00483319890758
53.47216278196667
49.550596885207156
48.3561135852166
47.96066657241038
47.8315201998195
47.76978668038175
47.69008924419972
47.460788106529876
46.79959510716642
46.76485357099635
46.7307791036789
46.697458237946236
46.66496560140567
46.63336437016967
46.6027065258863
46.57303269114102
46.544371818969665
46.516740930250464
77.52431606848518
76.97968344905229
76.44101080650111
75.9081237012389
75.38076756036666
74.85861145241527
74.34123145906514
73.82808388764458
73.31846782219789
72.81147260438824
72.30590453539882
71.80021063237149
71.29267731872231
70.78237353578952
70.14812477527646
69.5148037548289
68.88235569455084
68.25049399912766
67.61865895207112
66.98600161901909
66.35138605245827
65.71344049579272
65.07072938227792
53.39248768696605
49.575728960706655
48.385064926472566
47.99649474831541
47.868565100944245
47.80776786930338
47.7283620326538
47.505494797256205
46.833715939964016
46.79849847993623
46.763998745552264
46.730303934276584
46.69748835920712
46.66561534653983
46.6347376088231
46.60489678878237
46.576122526466825
46.54843220604175
77.542119507969
76.99750054269754
76.45884999753075
75.92601472568691
75.3987609080398
74.87677794534532
74.35966650691799
73.8469171374647
73.33788066079865
72.83172914607557
72.32740836602157
71.82362275014222
71.31905177048124
70.81290983383533
70.18439208355281
69.55674772119188
68.92982906738565
68.30332274844106
67.67668869731554
67.04908427853682
66.41921288278886
65.78523601273663
65.14489188804892
53.28422534358615
49.601443314125646
48.4135572305685
48.034139249905465
47.90750206693048
47.84795698098612
47.76878289126292
47.55411399961157
46.86926560444159
46.83346870631568
46.79845538744639
46.76431100873734
46.731107612221265
46.69890742345204
46.66776596253196
46.63772642866666
46.6088193312804
46.58106245727809
77.56007984199181
77.01548258942745
76.47687545762327
75.94412324325543
75.41701254643718
74.89525485589066
74.37847821837342
73.86621122665942
73.35786151753128
72.85269029049705
72.349789413879
71.8481027933092
71.34660584634683
70.84461004592467
70.22184582161528
69.60000315640974
68.97890973378775
68.35827840606342
67.73765051462904
67.11630260041593
66.49305697645309
65.8654796821377
65.22997603923636
53.14524504684496
49.628853477841716
48.441258810232036
48.073724889585804
47.94829493734747
47.89038587674805
47.8112883679017
47.60676004979863
46.90618373033075
46.8696980505386
46.83408393835695
46.79942464987844
46.765764018522425
46.733178845666274
46.70172837566186
46.671457612927114
46.64239787631699
46.61456726502219
77.57819601826237
77.0336272898816
76.49508231324879
75.96244172730091
75.43551217282149
74.91402843880223
74.39764807554289
73.88594055011073
73.37837370515864
72.87430143908
72.37296234158039
71.8735193395738
71.37518658747977
70.87737153486601
70.26045082034719
69.64456656389407
69.02956934656385
68.41524747824654
67.80129700320772
67.1872709944683
66.57244832466336
65.95571071299634
65.32959513144606
52.97282050485881
49.65938030711704
48.467730924588295
48.11541753280656
47.99089300177391
47.935096177994645
47.855798605743864
47.663571463618226
46.94439902886886
46.90703050827033
46.870853542719914
46.835579968465595
46.80138626535286
46.76835507346477
46.73654881239561
46.70601362734504
46.67678119950492
46.648869656766045
77.59646513542849
77.05193077637578
76.51346446888914
75.98096145759158
75.45424811333979
74.93308329851946
74.41715554117147
73.90607702905538
73.3993775885943
72.89650460135087
72.39683993329703
71.89974868708902
71.40465508738815
70.91107591718463
70.30010310700698
69.6903187657102
69.08162117844714
68.47389995111565
67.8670451847808
67.26097341895877
66.65568748897336
66.05139931350797
50.19862989385112
50.19862989385112
50.19862989385112
50.19862989385112
50.19862989385112
50.19862989385112
50.19862989385112
50.19862989385112
50.19862989385112
50.19862989385112
46.94577754399624
46.908692991667834
46.87269688719892
46.83788796092404
46.80434742803978
46.77213769408291
46.741304668964304
46.71187953824225
46.68387996612401
77.96400486426215
77.42066235094988
76.88522131983603
76.35774172304762
75.83832445293869
75.32712098006046
74.82434906699666
74.33031571428025
73.84544869876319
73.37033817842199
72.9057893443541
72.45288687298594
72.01307796938518
71.58830058133678
71.07343637999665
70.56251454835565
70.05606316879522
69.55464200461721
69.05884751411986
68.56931393384708
68.08670575996904
67.61169351772658
50.19862989385112
50.19862989385112
50.19862989385112
50.19862989385112
50.19862989385112
50.19862989385112
50.19862989385112
50.19862989385112
50.19862989385112
50.19862989385112
47.68345856528241
47.62538187285938
47.57169755239302
47.52223943658575
47.476871228278725
47.43548460221836
47.39799681896448
47.364348920354324
47.334504477000486
78.3089723084749
77.76645002418333
77.23289634147028
76.70835472885616
76.19289225135903
75.68659821557752
75.18958119763471
74.701963473202
74.22387137789674
73.75541947759343
73.2966856914263
72.84767337314027
72.40825302269214
71.97806812326633
71.45096027198264
70.92597002886168
70.4029205425468
69.88161253480126
69.36181816825184
68.84327543846334
68.32568426205393
67.8087064127861
50.19862989385112
50.19862989385112
50.19862989385112
50.19862989385112
50.19862989385112
50.19862989385112
50.19862989385112
50.19862989385112
50.19862989385112
50.19862989385112
47.881461751325546
47.836594502099096
47.79375327192243
47.75302836544713
47.714491664502646
47.67819862146173
47.644190057802255
47.612493515464216
47.58312419559247
78.58408984309062
78.04179281723454
77.5084498482178
76.98406945907404
76.46865996961813
75.96222815103842
75.46477753322036
74.97630659271388
74.49680725710765
74.02626449744601
73.5646582778738
73.11196995092558
72.66819694765842
72.23338334007765
71.7007235000853
71.17044776523782
70.6425996035682
70.11723149284748
69.59440807212867
69.07420942956323
68.55673427857924
68.04210250313432
50.19862989385112
50.19862989385112
50.19862989385112
50.19862989385112
50.19862989385112
50.19862989385112
50.19862989385112
50.19862989385112
50.19862989385112
50.19862989385112
47.95474095735832
47.90953630444665
47.866656274265935
47.826069762061586
47.78775235296726
47.75168518379009
47.71785399928486
47.68624845067748
47.656861612090985
78.78378081984016
78.24153518356299
77.70801565228226
77.18322655539124
76.66717041327502
76.15984809458955
75.66125906698105
75.17140175702622
74.69027399247759
74.21787340577544
73.75419750336943
73.2992427735111
72.85300148445944
72.41545330088975
71.87914048393306
71.34510955415325
70.81334687608282
70.28383560230318
69.75655441537856
69.23147612542122
68.70856615787568
68.18778103792741
50.19862989385112
50.19862989385112
50.19862989385112
50.19862989385112
50.19862989385112
50.19862989385112
50.19862989385112
50.19862989385112
50.19862989385112
50.19862989385112
47.97674951202081
47.93251957694171
47.890397286015755
47.85039143714558
47.812508177798705
47.77675150518161
47.743123664090575
47.7116254387931
47.68225635228152
78.91766522060958
78.37544500539995
77.841781104626
77.31667812399452
76.80013902987154
76.29216512494948
75.79275599699379
75.30190942367292
74.81962122051694
74.34588503677206
73.88069214798097
73.42403139588224
72.97588967117285
72.53625388717887
71.99723931091097
71.4604999596516
70.92603650017824
70.39385055418994
69.86394514582081
69.3363252259425
68.81099827689535
68.28797498351378
50.19862989385112
50.19862989385112
50.19862989385112
50.19862989385112
50.19862989385112
50.19862989385112
50.19862989385112
50.19862989385112
50.19862989385112
50.19862989385112
47.984275097848034
47.94010552853266
47.89806236837682
47.858140751843486
47.82033660321432
47.78464643887641
47.75106721462609
47.7195962152216
47.6902309798477
78.99451004623832
78.4523032767937
77.91855298874363
77.3932637001743
76.87643829491964
76.36807802092092
75.86818249408118
75.37674971447771
74.89377610343281
74.4192565690279
73.9531845997663
73.49555235954024
73.04635067975748
72.60556864959948
72.06507193780516
71.52683764229157
70.99086342441812
70.45714658122476
69.92568388690442
69.39647139818567
68.86950421710722
68.34477620870041
50.19862989385112
50.19862989385112
50.19862989385112
50.19862989385112
50.19862989385112
50.19862989385112
50.19862989385112
50.19862989385112
50.19862989385112
50.19862989385112
47.986569213833256
47.94247913706964
47.90049676962888
47.86062121390768
47.82285123777916
47.787185352063965
47.75362186876576
47.72215894248981
47.692794598025415
79.01955019122177
78.47734762851832
77.94356869029328
77.41821793770045
76.9012983515131
76.39281133833184
75.89275673766173
75.40113282652109
74.91793631647518
74.44316233668249
73.97680439795293
73.51885434356078
73.06930233150332
72.62813700177527
72.08714275586841
71.54840775349524
71.01193059628032
70.47771001257213
69.94574494849053
69.41603468307447
68.88857897330378
68.36337823332988
50.19862989385112
50.19862989385112
50.19862989385112
50.19862989385112
50.19862989385112
50.19862989385112
50.19862989385112
50.19862989385112
50.19862989385112
50.19862989385112
47.98710615587538
47.94302036702455
47.90104458314214
47.86117635700387
47.823413374936514
47.78775340923359
47.75419428299816
47.72273384544414
47.69336995562527
78.99451004623873
78.45230327679411
77.91855298874403
77.39326370017469
76.87643829491996
76.36807802092119
75.86818249408145
75.37674971447801
74.89377610343314
74.41925656902825
73.95318459976664
73.49555235954061
73.04635067975788
72.60556864959986
72.06507193780554
71.52683764229194
70.99086342441849
70.45714658122506
69.92568388690472
69.39647139818597
68.8695042171075
68.34477620870072
50.19862989385112
50.19862989385112
50.19862989385112
50.19862989385112
50.19862989385112
50.19862989385112
50.19862989385112
50.19862989385112
50.19862989385112
50.19862989385112
47.98656921383369
47.94247913707009
47.90049676962933
47.860621213908125
47.82285123777962
47.78718535206445
47.753621868766245
47.72215894249029
47.69279459802589
78.91766522061026
78.37544500540065
77.84178110462668
77.31667812399519
76.80013902987221
76.29216512495015
75.79275599699443
75.30190942367356
74.81962122051753
74.34588503677266
73.88069214798158
73.42403139588285
72.97588967117346
72.5362538871795
71.9972393109116
71.46049995965221
70.92603650017882
70.39385055419054
69.8639451458214
69.33632522594313
68.81099827689597
68.28797498351435
50.19862989385112
50.19862989385112
50.19862989385112
50.19862989385112
50.19862989385112
50.19862989385112
50.19862989385112
50.19862989385112
50.19862989385112
50.19862989385112
47.98427509784912
47.94010552853376
47.89806236837795
47.85814075184465
47.82033660321549
47.78464643887756
47.75106721462725
47.71959621522277
47.69023097984887
78.78378081984069
78.24153518356349
77.70801565228273
77.1832265553917
76.66717041327546
76.15984809458996
75.66125906698143
75.17140175702656
74.69027399247791
74.21787340577575
73.75419750336977
73.29924277351147
72.85300148445987
72.41545330089019
71.87914048393353
71.34510955415372
70.81334687608327
70.28383560230358
69.75655441537889
69.23147612542148
68.7085661578759
68.18778103792762
50.19862989385112
50.19862989385112
50.19862989385112
50.19862989385112
50.19862989385112
50.19862989385112
50.19862989385112
50.19862989385112
50.19862989385112
50.19862989385112
47.97674951202361
47.93251957694458
47.89039728601867
47.85039143714849
47.81250817780159
47.77675150518446
47.74312366409336
47.7116254387958
47.682256352284206
78.58408984309096
78.0417928172349
77.5084498482182
76.98406945907448
76.46865996961857
75.96222815103884
75.46477753322078
74.97630659271431
74.49680725710812
74.02626449744648
73.56465827787426
73.11196995092601
72.66819694765879
72.23338334007803
71.70072350008567
71.17044776523814
70.64259960356854
70.11723149284785
69.59440807212911
69.07420942956371
68.55673427857974
68.04210250313479
50.19862989385112
50.19862989385112
50.19862989385112
50.19862989385112
50.19862989385112
50.19862989385112
50.19862989385112
50.19862989385112
50.19862989385112
50.19862989385112
47.95474095736058
47.90953630444894
47.86665627426828
47.82606976206398
47.78775235296971
47.75168518379255
47.71785399928736
47.686248450680026
47.656861612093536
78.30897230847468
77.76645002418309
77.23289634147001
76.70835472885587
76.19289225135871
75.68659821557725
75.18958119763444
74.70196347320172
74.22387137789647
73.7554194775932
73.29668569142613
72.84767337314015
72.40825302269205
71.97806812326625
71.45096027198255
70.92597002886163
70.40292054254674
69.88161253480123
69.36181816825179
68.84327543846327
68.32568426205385
67.80870641278598
50.19862989385112
50.19862989385112
50.19862989385112
50.19862989385112
50.19862989385112
50.19862989385112
50.19862989385112
50.19862989385112
50.19862989385112
50.19862989385112
47.881461751327194
47.83659450210078
47.793753271924125
47.75302836544881
47.71449166450434
47.67819862146344
47.64419005780393
47.61249351546587
47.583124195594124
77.9640048642616
77.42066235094933
76.88522131983548
76.35774172304706
75.83832445293815
75.32712098005993
74.82434906699616
74.33031571427976
73.84544869876272
73.37033817842155
72.90578934435376
72.45288687298569
72.01307796938494
71.58830058133657
71.07343637999648
70.56251454835548
70.05606316879506
69.55464200461704
69.05884751411969
68.5693139338469
68.08670575996881
67.61169351772632
50.19862989385112
50.19862989385112
50.19862989385112
50.19862989385112
50.19862989385112
50.19862989385112
50.19862989385112
50.19862989385112
50.19862989385112
50.19862989385112
47.68345856528353
47.62538187286053
47.57169755239421
47.52223943658698
47.476871228279954
47.435484602219596
47.39799681896573
47.3643489203556
47.33450447700176
77.59646513542772
77.051930776375
76.51346446888846
75.98096145759104
75.4542481133393
74.93308329851907
74.41715554117111
73.90607702905506
73.39937758859402
72.8965046013506
72.39683993329672
71.89974868708865
71.40465508738785
70.9110759171844
70.30010310700682
69.69031876571016
69.08162117844718
68.47389995111581
67.86704518478105
67.2609734189591
66.65568748897375
66.05139931350841
50.19862989385112
50.19862989385112
50.19862989385112
50.19862989385112
50.19862989385112
50.19862989385112
50.19862989385112
50.19862989385112
50.19862989385112
50.19862989385112
46.94577754399752
46.90869299166915
46.87269688720025
46.83788796092539
46.80434742804118
46.772137694084314
46.741304668965675
46.711879538243586
46.683879966125346
77.57819601826154
77.03362728988077
76.4950823132481
75.96244172730032
75.43551217282106
74.91402843880181
74.39764807554253
73.8859405501104
73.37837370515838
72.87430143907974
72.37296234158
71.87351933957342
71.37518658747942
70.87737153486574
70.26045082034703
69.64456656389403
69.02956934656392
68.4152474782467
67.80129700320798
67.18727099446863
66.57244832466371
65.9557107129967
65.32959513144645
52.97282050486
49.65938030711689
48.46773092458817
48.11541753280744
47.99089300177428
47.935096177995064
47.85579860574432
47.66357146361759
46.94439902887005
46.90703050827162
46.87085354272119
46.83557996846692
46.80138626535422
46.768355073466104
46.73654881239694
46.70601362734635
46.67678119950623
46.64886965676737
77.56007984199091
77.01548258942663
76.47687545762261
75.94412324325488
75.41701254643678
74.8952548558903
74.37847821837305
73.86621122665909
73.35786151753098
72.85269029049681
72.3497894138787
71.84810279330874
71.34660584634648
70.84461004592441
70.22184582161512
69.60000315640968
68.97890973378777
68.35827840606356
67.73765051462927
67.11630260041625
66.49305697645346
65.86547968213813
65.22997603923687
53.145245046846206
49.6288534778416
48.44125881023201
48.073724889586686
47.94829493734789
47.89038587674846
47.811288367902186
47.60676004979798
46.906183730332
46.86969805053985
46.83408393835825
46.79942464987971
46.76576401852369
46.73317884566757
46.70172837566316
46.6714576129284
46.642397876318284
46.61456726502351
77.54211950796804
76.9975005426967
76.45884999753005
75.92601472568633
75.3987609080394
74.87677794534497
74.3596665069176
73.84691713746435
73.33788066079836
72.83172914607526
72.32740836602122
71.82362275014184
71.31905177048085
70.81290983383508
70.18439208355265
69.55674772119183
68.9298290673857
68.30332274844119
67.67668869731583
67.04908427853712
66.41921288278925
65.78523601273714
65.14489188804947
53.28422534358744
49.60144331412562
48.41355723056851
48.034139249906374
47.907502066930896
47.847956980986496
47.76878289126346
47.5541139996109
46.86926560444289
46.833468706316964
46.79845538744766
46.76431100873857
46.731107612222516
46.69890742345329
46.667765962533196
46.637726428667925
46.60881933128169
46.581062457279344
77.52431606848425
76.97968344905146