# vtk DataFile Version 2.0
Niestacjonarne zagadnienie cieplne - ogrzewanie wody w garnku stalowym
ASCII
DATASET UNSTRUCTURED_GRID
POINTS 1353 float
0.0 0.0 0.0
0.0 0.0015384615384615385 0.0
0.0 0.003076923076923077 0.0
0.0 0.004615384615384615 0.0
0.0 0.006153846153846154 0.0
0.0 0.007692307692307693 0.0
0.0 0.00923076923076923 0.0
0.0 0.010769230769230769 0.0
0.0 0.012307692307692308 0.0
0.0 0.013846153846153847 0.0
0.0 0.015384615384615385 0.0
0.0 0.016923076923076923 0.0
0.0 0.01846153846153846 0.0
0.0 0.02 0.0
0.0 0.020555555555555556 0.0
0.0 0.021111111111111112 0.0
0.0 0.021666666666666667 0.0
0.0 0.022222222222222223 0.0
0.0 0.02277777777777778 0.0
0.0 0.023333333333333334 0.0
0.0 0.02388888888888889 0.0
0.0 0.024444444444444446 0.0
0.0 0.025 0.0
0.0 0.036111111111111115 0.0
0.0 0.04722222222222222 0.0
0.0 0.058333333333333334 0.0
0.0 0.06944444444444445 0.0
0.0 0.08055555555555556 0.0
0.0 0.09166666666666667 0.0
0.0 0.10277777777777777 0.0
0.0 0.1138888888888889 0.0
0.0 0.125 0.0
0.0 0.12555555555555556 0.0
0.0 0.12611111111111112 0.0
0.0 0.12666666666666668 0.0
0.0 0.1272222222222222 0.0
0.0 0.12777777777777777 0.0
0.0 0.12833333333333333 0.0
0.0 0.1288888888888889 0.0
0.0 0.12944444444444445 0.0
0.0 0.13 0.0
5.555555555555556E-4 0.0 0.0
5.555555555555556E-4 0.0015384615384615385 0.0
5.555555555555556E-4 0.003076923076923077 0.0
5.555555555555556E-4 0.004615384615384615 0.0
5.555555555555556E-4 0.006153846153846154 0.0
5.555555555555556E-4 0.007692307692307693 0.0
5.555555555555556E-4 0.00923076923076923 0.0
5.555555555555556E-4 0.010769230769230769 0.0
5.555555555555556E-4 0.012307692307692308 0.0
5.555555555555556E-4 0.013846153846153847 0.0
5.555555555555556E-4 0.015384615384615385 0.0
5.555555555555556E-4 0.016923076923076923 0.0
5.555555555555556E-4 0.01846153846153846 0.0
5.555555555555556E-4 0.02 0.0
5.555555555555556E-4 0.020555555555555556 0.0
5.555555555555556E-4 0.021111111111111112 0.0
5.555555555555556E-4 0.021666666666666667 0.0
5.555555555555556E-4 0.022222222222222223 0.0
5.555555555555556E-4 0.02277777777777778 0.0
5.555555555555556E-4 0.023333333333333334 0.0
5.555555555555556E-4 0.02388888888888889 0.0
5.555555555555556E-4 0.024444444444444446 0.0
5.555555555555556E-4 0.025 0.0
5.555555555555556E-4 0.036111111111111115 0.0
5.555555555555556E-4 0.04722222222222222 0.0
5.555555555555556E-4 0.058333333333333334 0.0
5.555555555555556E-4 0.06944444444444445 0.0
5.555555555555556E-4 0.08055555555555556 0.0
5.555555555555556E-4 0.09166666666666667 0.0
5.555555555555556E-4 0.10277777777777777 0.0
5.555555555555556E-4 0.1138888888888889 0.0
5.555555555555556E-4 0.125 0.0
5.555555555555556E-4 0.12555555555555556 0.0
5.555555555555556E-4 0.12611111111111112 0.0
5.555555555555556E-4 0.12666666666666668 0.0
5.555555555555556E-4 0.1272222222222222 0.0
5.555555555555556E-4 0.12777777777777777 0.0
5.555555555555556E-4 0.12833333333333333 0.0
5.555555555555556E-4 0.1288888888888889 0.0
5.555555555555556E-4 0.12944444444444445 0.0
5.555555555555556E-4 0.13 0.0
0.0011111111111111111 0.0 0.0
0.0011111111111111111 0.0015384615384615385 0.0
0.0011111111111111111 0.003076923076923077 0.0
0.0011111111111111111 0.004615384615384615 0.0
0.0011111111111111111 0.006153846153846154 0.0
0.0011111111111111111 0.007692307692307693 0.0
0.0011111111111111111 0.00923076923076923 0.0
0.0011111111111111111 0.010769230769230769 0.0
0.0011111111111111111 0.012307692307692308 0.0
0.0011111111111111111 0.013846153846153847 0.0
0.0011111111111111111 0.015384615384615385 0.0
0.0011111111111111111 0.016923076923076923 0.0
0.0011111111111111111 0.01846153846153846 0.0
0.0011111111111111111 0.02 0.0
0.0011111111111111111 0.020555555555555556 0.0
0.0011111111111111111 0.021111111111111112 0.0
0.0011111111111111111 0.021666666666666667 0.0
0.0011111111111111111 0.022222222222222223 0.0
0.0011111111111111111 0.02277777777777778 0.0
0.0011111111111111111 0.023333333333333334 0.0
0.0011111111111111111 0.02388888888888889 0.0
0.0011111111111111111 0.024444444444444446 0.0
0.0011111111111111111 0.025 0.0
0.0011111111111111111 0.036111111111111115 0.0
0.0011111111111111111 0.04722222222222222 0.0
0.0011111111111111111 0.058333333333333334 0.0
0.0011111111111111111 0.06944444444444445 0.0
0.0011111111111111111 0.08055555555555556 0.0
0.0011111111111111111 0.09166666666666667 0.0
0.0011111111111111111 0.10277777777777777 0.0
0.0011111111111111111 0.1138888888888889 0.0
0.0011111111111111111 0.125 0.0
0.0011111111111111111 0.12555555555555556 0.0
0.0011111111111111111 0.12611111111111112 0.0
0.0011111111111111111 0.12666666666666668 0.0
0.0011111111111111111 0.1272222222222222 0.0
0.0011111111111111111 0.12777777777777777 0.0
0.0011111111111111111 0.12833333333333333 0.0
0.0011111111111111111 0.1288888888888889 0.0
0.0011111111111111111 0.12944444444444445 0.0
0.0011111111111111111 0.13 0.0
0.0016666666666666666 0.0 0.0
0.0016666666666666666 0.0015384615384615385 0.0
0.0016666666666666666 0.003076923076923077 0.0
0.0016666666666666666 0.004615384615384615 0.0
0.0016666666666666666 0.006153846153846154 0.0
0.0016666666666666666 0.007692307692307693 0.0
0.0016666666666666666 0.00923076923076923 0.0
0.0016666666666666666 0.010769230769230769 0.0
0.0016666666666666666 0.012307692307692308 0.0
0.0016666666666666666 0.013846153846153847 0.0
0.0016666666666666666 0.015384615384615385 0.0
0.0016666666666666666 0.016923076923076923 0.0
0.0016666666666666666 0.01846153846153846 0.0
0.0016666666666666666 0.02 0.0
0.0016666666666666666 0.020555555555555556 0.0
0.0016666666666666666 0.021111111111111112 0.0
0.0016666666666666666 0.021666666666666667 0.0
0.0016666666666666666 0.022222222222222223 0.0
0.0016666666666666666 0.02277777777777778 0.0
0.0016666666666666666 0.023333333333333334 0.0
0.0016666666666666666 0.02388888888888889 0.0
0.0016666666666666666 0.024444444444444446 0.0
0.0016666666666666666 0.025 0.0
0.0016666666666666666 0.036111111111111115 0.0
0.0016666666666666666 0.04722222222222222 0.0
0.0016666666666666666 0.058333333333333334 0.0
0.0016666666666666666 0.06944444444444445 0.0
0.0016666666666666666 0.08055555555555556 0.0
0.0016666666666666666 0.09166666666666667 0.0
0.0016666666666666666 0.10277777777777777 0.0
0.0016666666666666666 0.1138888888888889 0.0
0.0016666666666666666 0.125 0.0
0.0016666666666666666 0.12555555555555556 0.0
0.0016666666666666666 0.12611111111111112 0.0
0.0016666666666666666 0.12666666666666668 0.0
0.0016666666666666666 0.1272222222222222 0.0
0.0016666666666666666 0.12777777777777777 0.0
0.0016666666666666666 0.12833333333333333 0.0
0.0016666666666666666 0.1288888888888889 0.0
0.0016666666666666666 0.12944444444444445 0.0
0.0016666666666666666 0.13 0.0
0.0022222222222222222 0.0 0.0
0.0022222222222222222 0.0015384615384615385 0.0
0.0022222222222222222 0.003076923076923077 0.0
0.0022222222222222222 0.004615384615384615 0.0
0.0022222222222222222 0.006153846153846154 0.0
0.0022222222222222222 0.007692307692307693 0.0
0.0022222222222222222 0.00923076923076923 0.0
0.0022222222222222222 0.010769230769230769 0.0
0.0022222222222222222 0.012307692307692308 0.0
0.0022222222222222222 0.013846153846153847 0.0
0.0022222222222222222 0.015384615384615385 0.0
0.0022222222222222222 0.016923076923076923 0.0
0.0022222222222222222 0.01846153846153846 0.0
0.0022222222222222222 0.02 0.0
0.0022222222222222222 0.020555555555555556 0.0
0.0022222222222222222 0.021111111111111112 0.0
0.0022222222222222222 0.021666666666666667 0.0
0.0022222222222222222 0.022222222222222223 0.0
0.0022222222222222222 0.02277777777777778 0.0
0.0022222222222222222 0.023333333333333334 0.0
0.0022222222222222222 0.02388888888888889 0.0
0.0022222222222222222 0.024444444444444446 0.0
0.0022222222222222222 0.025 0.0
0.0022222222222222222 0.036111111111111115 0.0
0.0022222222222222222 0.04722222222222222 0.0
0.0022222222222222222 0.058333333333333334 0.0
0.0022222222222222222 0.06944444444444445 0.0
0.0022222222222222222 0.08055555555555556 0.0
0.0022222222222222222 0.09166666666666667 0.0
0.0022222222222222222 0.10277777777777777 0.0
0.0022222222222222222 0.1138888888888889 0.0
0.0022222222222222222 0.125 0.0
0.0022222222222222222 0.12555555555555556 0.0
0.0022222222222222222 0.12611111111111112 0.0
0.0022222222222222222 0.12666666666666668 0.0
0.0022222222222222222 0.1272222222222222 0.0
0.0022222222222222222 0.12777777777777777 0.0
0.0022222222222222222 0.12833333333333333 0.0
0.0022222222222222222 0.1288888888888889 0.0
0.0022222222222222222 0.12944444444444445 0.0
0.0022222222222222222 0.13 0.0
0.002777777777777778 0.0 0.0
0.002777777777777778 0.0015384615384615385 0.0
0.002777777777777778 0.003076923076923077 0.0
0.002777777777777778 0.004615384615384615 0.0
0.002777777777777778 0.006153846153846154 0.0
0.002777777777777778 0.007692307692307693 0.0
0.002777777777777778 0.00923076923076923 0.0
0.002777777777777778 0.010769230769230769 0.0
0.002777777777777778 0.012307692307692308 0.0
0.002777777777777778 0.013846153846153847 0.0
0.002777777777777778 0.015384615384615385 0.0
0.002777777777777778 0.016923076923076923 0.0
0.002777777777777778 0.01846153846153846 0.0
0.002777777777777778 0.02 0.0
0.002777777777777778 0.020555555555555556 0.0
0.002777777777777778 0.021111111111111112 0.0
0.002777777777777778 0.021666666666666667 0.0
0.002777777777777778 0.022222222222222223 0.0
0.002777777777777778 0.02277777777777778 0.0
0.002777777777777778 0.023333333333333334 0.0
0.002777777777777778 0.02388888888888889 0.0
0.002777777777777778 0.024444444444444446 0.0
0.002777777777777778 0.025 0.0
0.002777777777777778 0.036111111111111115 0.0
0.002777777777777778 0.04722222222222222 0.0
0.002777777777777778 0.058333333333333334 0.0
0.002777777777777778 0.06944444444444445 0.0
0.002777777777777778 0.08055555555555556 0.0
0.002777777777777778 0.09166666666666667 0.0
0.002777777777777778 0.10277777777777777 0.0
0.002777777777777778 0.1138888888888889 0.0
0.002777777777777778 0.125 0.0
0.002777777777777778 0.12555555555555556 0.0
0.002777777777777778 0.12611111111111112 0.0
[...]
POINT_DATA 1353
SCALARS Temperatura float 1
LOOKUP_TABLE default
82.67964578215943
82.13941812134883
81.60504635036081
81.07616422696887
80.55244412695237
80.0334900497293
79.51880018247408
79.00772117122077
78.49938807052597
77.99261385953466
77.48576910702606
76.97617002231222
76.46054837205786
75.9219565343946
75.2285649007473
74.56570738006197
73.91236888637684
73.2647734839617
72.62052496719555
71.9780454662172
71.33618531759222
70.69412194175557
70.05134318287897
58.80279282408657
54.7179908473845
53.516967929263345
53.11149962783177
52.97932143105046
52.9132570325662
52.82401680808278
52.55398514333457
51.828922053119335
51.79014664375918
51.751930463396405
51.714354380535056
51.677487744463534
51.64138873022229
51.606104620661526
51.571671969627985
51.53811665286685
51.50545385081777
82.69833324829325
82.15799187375839
81.62347917920376
81.0944612470269
80.57061083397004
80.05153483335127
79.53673379345379
79.02555866910863
78.51714762353566
78.0103358679116
77.50345703561578
76.99413628656986
76.47795355088546
75.945985413059
75.27880507441463
74.61809143897467
73.96587488256152
73.31867063182906
72.67451505216216
72.03194089409047
71.3898353967176
70.7473765221439
70.10403709853829
58.83037061568612
54.752614344549805
53.55129370054803
53.146111131455186
53.01398547599956
52.947954594607424
52.8586967792351
52.58916078406518
51.86221860926189
51.82335627234526
51.78505967425224
51.74740959239317
51.710475251639735
51.67431473596061
51.63897529705333
51.60449350934643
51.570895293317804
51.53819586806454
82.71711838057978
82.17672158719068
81.64210869769056
81.11299671760099
80.58906705920516
80.06993373988969
79.55510541004449
79.04394403132592
78.53560669861027
78.02895418900981
77.52239377973744
77.01363359419382
76.49866378160243
75.97334516379175
75.31771942170543
74.6651252691109
74.01661818382888
73.37169464417721
72.7290447623878
72.08747474230057
71.44595030120122
70.80363675598535
70.15995104400426
58.83357535913298
54.78557031737552
53.58570681360132
53.182242088508076
53.050534274576684
52.984743509038175
52.89560774451332
52.62812785696889
51.8970134024106
51.857969607889
51.81951006144248
51.78171499622004
51.744653051700986
51.7083818955617
51.672948604062924
51.638389772567535
51.60473143689422
51.571988923698356
82.73603061551509
82.19560837295792
81.66093422617377
81.13176896387746
80.6078102221296
80.08868325207176
79.57390991532118
79.06287075581848
78.55475187848356
78.04846197946944
77.542506707864
77.03474295841076
76.52203374339908
76.00232816460625
75.35491062985908
74.70922317251336
74.06581664969974
73.42450485356089
72.78456739158622
72.14504466378085
71.50495403890372
70.86339395637813
70.21965041192256
58.81189460737109
54.81711385355906
53.620138700947685
53.21991890077654
53.08896277916603
53.02363230182367
52.93473472001413
52.670920892236
51.93328948402119
51.893970014029435
51.85526564856588
51.81725527609874
51.78000626560149
51.743575482733355
51.7080097525598
51.67334581666516
51.639610009026754
51.60681790211973
82.7550853009142
82.21465597142006
81.67995426974093
81.15077511373545
80.62683601550567
80.10777741598851
79.59313909914218
79.08232688853646
78.57456578117174
78.06883040440307
77.56374223307763
77.05740118779312
76.54745268815363
76.0326992914624
75.39214503528224
74.75276205074609
74.11474969072073
73.47791612263451
72.84169167104898
72.20522770380776
71.56750668462855
70.92745761717607
70.28410517847675
58.76447303973935
54.84768149888787
53.65447021980704
53.25918647125398
53.12926049164174
53.06463427431784
52.97605057624206
52.717595657936656
51.97101674379456
51.93132842497973
51.89229895174617
51.854004361073116
51.81650964625546
51.77987042657631
51.744133430440854
51.70933595878372
51.675505044627755
51.64265675145902
82.77429069758249
82.2338672152146
81.69916680502766
81.17001101529884
80.64613843123088
80.12720798428848
79.61278158028685
79.10229616711169
78.59502451972934
78.09002006567474
77.58603975344202
77.08146517154292
76.57453018680063
76.06437819246091
75.4301255829779
74.79679909840083
74.16439201610255
73.53264871452978
72.90102298557474
72.26866592984607
71.63443342175357
70.99694159576929
70.35474150446953
58.690083793129176
54.87790726408866
53.688524176458884
53.3001112187768
53.171410208860124
53.10776830257865
53.01951506820049
52.76823037833531
52.01015055487141
51.97000282375488
51.930571239417326
51.891926192360096
51.854128319151435
51.81723174863557
51.781283879589665
51.74632365307679
51.71237947086325
51.67946823963465
82.79365078076711
82.25324315787705
81.71856896497776
81.18947126307333
80.66570980044894
80.14696452220367
79.6328230344812
79.12275836941886
78.61609821930494
78.11198440040188
77.6093238310062
77.10677677944219
76.60300333142679
76.0972955234563
75.46914544409069
74.84184917469173
74.21529297240596
73.58918757178664
72.96300613009656
72.33590976716812
71.70659918833083
71.07322948402025
70.43353084899395
58.58708307341856
54.908646849961855
53.722054156893165
53.342785580275766
53.215386146425985
53.15306002062063
53.065073420616216
52.822927528220696
52.05062965600601
52.00993730834333
51.970033551122
51.93097647486949
51.8928194794947
51.855614982511824
51.819414810383115
51.78426118474211
51.75018471997717
51.717203547573554
82.8131665254971
82.27278297254189
81.73815677976184
81.20914919937081
80.68554085726346
80.16703454287753
79.65324646028641
79.14368968816342
78.63775211013197
78.13467055881567
77.63350862749924
77.1331845556706
76.63267581470899
76.13136625750283
75.50929918372161
74.88812284872277
74.26768899961417
73.64772856043646
73.0277939020324
72.40716587744815
71.78466559627505
71.15785741558388
70.52314262345874
58.45334009022904
54.94101271762996
53.75472872388057
53.38733435514508
53.26115129782495
53.20054346136401
53.11265440196352
52.881816306838346
52.0923730309868
52.05106047014959
52.01062668551527
51.97111114003863
51.93253347186379
51.89496609372793
51.8584688933355
51.82308906979302
51.788860125754354
51.75580167203925
82.83283659340444
82.29248406368131
81.75792504832408
81.22903691220775
80.70562081869988
80.18740366868543
79.67403246036679
79.16506322432838
78.65994748989284
78.1580206520629
77.65850313031137
77.16054776291739
76.66338494367565
76.16648667688813
75.55056377878873
74.9356391767138
74.32158027573666
73.70818843021637
73.09516802689758
72.48207551535091
71.86818842571724
71.25237952828728
70.62720498783112
58.28612879890963
54.976424358557985
53.786109477366914
53.433923434395346
53.30865383529703
53.25026318569395
53.16216807720961
52.94505488482123
52.135279358031255
52.09321367333453
52.05234566646974
52.01228483137857
51.97321300952171
51.93522016256384
51.89837661367737
51.86273510288663
51.828332109491605
51.79518866046163
82.8526577601169
82.31234222951602
81.77786730675673
81.24912525015425
80.72593747763894
80.20805580940643
79.69515954495158
79.18684952225763
78.68264262641345
78.18197333951802
77.68421464267468
77.18873473501807
76.69498437024784
76.20253712114076
75.59284307386132
74.98429435815999
74.37680050334534
73.7702600548887
73.16456895406162
72.55964586580137
71.95549153397997
71.3523112494853
55.676380070889785
55.676380070889785
55.676380070889785
55.676380070889785
55.676380070889785
55.676380070889785
55.676380070889785
55.676380070889785
55.676380070889785
55.676380070889785
52.13681390206146
52.09516460140803
52.05444534548471
52.0147885472358
51.976298694526605
51.93905448533018
51.90311312695838
51.868513249944584
51.8352767767765
83.24911390970964
82.71005003728109
82.17873391823477
81.65522783139195
81.13963689155206
80.63211909545524
80.13290164061814
79.64230469286889
79.16077395348698
78.6889234055193
78.22758894229405
77.77789315717037
77.3413280390494
76.91988406254818
76.40922884066154
75.90250967517879
75.40026784392033
74.90307750997317
74.4115510934573
73.92634070012107
73.44813096144922
72.97761516538098
55.676380070889785
55.676380070889785
55.676380070889785
55.676380070889785
55.676380070889785
55.676380070889785
55.676380070889785
55.676380070889785
55.676380070889785
55.676380070889785
52.967021866286736
52.902375845776696
52.84233240621678
52.786702418928556
52.73533217165197
52.68810020708379
52.64491415123733
52.60570841993599
52.570442663881614
83.61899130719625
83.08078306614571
82.55141911782701
82.03094417034653
81.51942737489229
81.01696088119168
80.52365670562827
80.03964089620835
79.56504348031906
79.09998203681684
78.64453602793122
78.19870793113516
77.76236376316933
77.33513686452518
76.8115897687471
76.29009949985404
75.77048435362641
75.25253949979695
74.73603062744546
74.22068809945252
73.7062027760964
73.19222565747576
55.676380070889785
55.676380070889785
55.676380070889785
55.676380070889785
55.676380070889785
55.676380070889785
55.676380070889785
55.676380070889785
55.676380070889785
55.676380070889785
53.19098501640839
53.141089385064696
53.09314724454945
53.04726059519279
53.00351032996054
52.96195875143956
52.922651720273166
52.885620239381694
52.85088154337153
83.91350521988768
83.37553248789663
82.84637756839092
82.32604884246089
81.81455443659478
81.31190083352824
80.8180911265851
80.33312315603158
79.856987979374
79.38966946848262
78.93114632485673
78.48139862364343
78.04042280222431
77.60826291135925
77.07877840295089
76.55162139515431
76.0268362446213
75.50447657973832
74.98460855146767
74.46731423307632
73.95269492643729
73.4408738590564
55.676380070889785
55.676380070889785
55.676380070889785
55.676380070889785
55.676380070889785
55.676380070889785
55.676380070889785
55.676380070889785
55.676380070889785
55.676380070889785
53.27377065061946
53.223535710355286
53.17558350651931
53.12987950122227
53.08639675425372
53.04511457258345
53.0060174192828
52.96909411095622
52.93433726766367
84.1272957605621
83.58937754810677
83.06003216145176
82.53926365148624
82.02707416160573
81.52346409005033
81.0284323481503
80.54197672976741
80.06409436314742
79.59478212035033
79.13403668321956
78.68185363018952
78.2382241709079
77.8031265743203
77.26972304100802
76.73854071007727
76.20956542736646
75.68277973772102
75.15816158973082
74.63568288958803
74.11530793611016
73.59699184117187
55.676380070889785
55.676380070889785
55.676380070889785
55.676380070889785
55.676380070889785
55.676380070889785
55.676380070889785
55.676380070889785
55.676380070889785
55.676380070889785
53.29871473169491
53.24957322441361
53.20247147533141
53.157419635123844
53.114424865507885
53.07349191896498
53.03462359251581
52.99782105827513
52.96308408820021
84.27068811750351
83.73279707545842
83.20329689561198
82.68219191640205
82.1694847491125
81.66517625268453
81.16926548085755
80.68174958438586
80.202623655335
79.73188051860345
79.2695105204065
78.81550146628466
78.36983911151354
77.93250917751912
77.39621625864814
76.86213661531373
76.33027076407588
75.80062020318529
75.27318787282724
74.74797869496736
74.2250001975191
73.70426320976851
55.676380070889785
55.676380070889785
55.676380070889785
55.676380070889785
55.676380070889785
55.676380070889785
55.676380070889785
55.676380070889785
55.676380070889785
55.676380070889785
53.3072460686876
53.25817575251553
53.21116560587064
53.16621049304193
53.12330617085388
53.082449062258526
53.04363608342527
53.00686451932729
52.97213194003579
84.3530150779301
83.8151384410337
83.28554571392903
82.76424114845857
82.2512272794295
81.7465049231014
81.25007318140642
80.76192945891236
80.28206950118191
79.8104874622339
79.34717600087102
78.89212637884893
78.44532845496208
78.00677026834913
77.46888909257775
76.93320748208816
76.39972289280071
75.86843240773412
75.33933257412502
74.81241920327075
74.28768712610825
73.76512990153587
55.676380070889785
55.676380070889785
55.676380070889785
55.676380070889785
55.676380070889785
55.676380070889785
55.676380070889785
55.676380070889785
55.676380070889785
55.676380070889785
53.30985264936496
53.26087193926936
53.21393042386882
53.16902739671103
53.12616177951822
53.08533221023614
53.04653710866597
53.00977472294815
52.97504316043975
84.37984594798414
83.84197382492535
83.31235041744823
82.7909800232288
82.2778652800957
81.77300717253723
81.27640503915947
80.78805657768265
80.30795784226794
79.83610322663755
79.37248542784056
78.91709539631519
78.46992231761006
78.03095378313247
77.4925399987164
76.95632232552482
76.42229918438852
75.89046912714292
75.36083093014284
74.83338371263176
74.30812708604581
73.7850613389357
55.676380070889785
55.676380070889785
55.676380070889785
55.676380070889785
55.676380070889785
55.676380070889785
55.676380070889785
55.676380070889785
55.676380070889785
55.676380070889785
53.31046284188082
53.26148722271746
53.21455331247157
53.1696586746787
53.12680102645205
53.08597818459197
53.047188026046626
53.01042846023294
52.975697410840844
84.35301507793055
83.81513844103418
83.28554571392948
82.764241148459
82.25122727942987
81.7465049231017
81.2500731814067
80.76192945891268
80.28206950118224
79.81048746223424
79.34717600087137
78.89212637884931
78.44532845496246
78.00677026834953
77.46888909257815
76.93320748208855
76.39972289280108
75.86843240773445
75.33933257412536
74.81241920327109
74.2876871261086
73.76512990153623
55.676380070889785
55.676380070889785
55.676380070889785
55.676380070889785
55.676380070889785
55.676380070889785
55.676380070889785
55.676380070889785
55.676380070889785
55.676380070889785
53.30985264936547
53.26087193926989
53.21393042386936
53.16902739671157
53.12616177951877
53.085332210236714
53.04653710866655
53.00977472294872
52.97504316044033
84.27068811750422
83.73279707545915
83.2032968956127
82.68219191640276
82.1694847491132
81.6651762526852
81.16926548085819
80.68174958438648
80.2026236553356
79.73188051860404
79.26951052040708
78.81550146628526
78.36983911151412
77.93250917751973
77.39621625864876
76.86213661531434
76.33027076407649
75.80062020318589
75.27318787282786
74.747978694968
74.22500019751975
73.70426320976912
55.676380070889785
55.676380070889785
55.676380070889785
55.676380070889785
55.676380070889785
55.676380070889785
55.676380070889785
55.676380070889785
55.676380070889785
55.676380070889785
53.30724606868883
53.25817575251678
53.211165605871926
53.16621049304325
53.123306170855194
53.08244906225983
53.04363608342659
53.006864519328616
52.972131940037116
84.12729576056262
83.58937754810724
83.0600321614522
82.53926365148665
82.02707416160614
81.52346409005074
81.02843234815067
80.54197672976774
80.06409436314775
79.59478212035064
79.13403668321993
78.6818536301899
78.23822417090832
77.80312657432074
77.26972304100849
76.73854071007774
76.20956542736693
75.68277973772148
75.15816158973117
74.63568288958827
74.11530793611036
73.59699184117204
55.676380070889785
55.676380070889785
55.676380070889785
55.676380070889785
55.676380070889785
55.676380070889785
55.676380070889785
55.676380070889785
55.676380070889785
55.676380070889785
53.298714731698006
53.249573224416785
53.20247147533463
53.15741963512708
53.114424865511104
53.07349191896817
53.03462359251892
52.99782105827817
52.963084088203225
83.91350521988801
83.37553248789698
82.8463775683913
82.32604884246132
81.81455443659519
81.31190083352867
80.81809112658554
80.33312315603203
79.85698797937448
79.3896694684831
78.93114632485717
78.48139862364386
78.04042280222471
77.60826291135965
77.07877840295131
76.55162139515467
76.02683624462168
75.50447657973874
74.9846085514682
74.46731423307688
73.95269492643784
73.44087385905694
55.676380070889785
55.676380070889785
55.676380070889785
55.676380070889785
55.676380070889785
55.676380070889785
55.676380070889785
55.676380070889785
55.676380070889785
55.676380070889785
53.27377065062195
53.22353571035782
53.1755835065219
53.12987950122492
53.08639675425642
53.04511457258618
53.00601741928557
52.969094110959034
52.93433726766649
83.61899130719601
83.08078306614549
82.55141911782674
82.0309441703462
81.51942737489196
81.01696088119141
80.52365670562801
80.0396408962081
79.5650434803188
79.09998203681663
78.64453602793111
78.19870793113508
77.76236376316928
77.33513686452514
76.81158976874703
76.29009949985401
75.77048435362636
75.25253949979694
74.7360306274454
74.22068809945245
73.7062027760963
73.19222565747562
55.676380070889785
55.676380070889785
55.676380070889785
55.676380070889785
55.676380070889785
55.676380070889785
55.676380070889785
55.676380070889785
55.676380070889785
55.676380070889785
53.19098501641028
53.14108938506662
53.09314724455138
53.047260595194714
53.003510329962474
52.96195875144149
52.922651720275056
52.885620239383556
52.85088154337339
83.24911390970905
82.71005003728052
82.17873391823423
81.65522783139141
81.13963689155149
80.6321190954547
80.13290164061766
79.64230469286841
79.16077395348651
78.68892340551888
78.2275889422937
77.77789315717011
77.34132803904913
76.91988406254796
76.40922884066138
75.90250967517865
75.40026784392022
74.90307750997303
74.41155109345716
73.92634070012092
73.44813096144907
72.97761516538081
55.676380070889785
55.676380070889785
55.676380070889785
55.676380070889785
55.676380070889785
55.676380070889785
55.676380070889785
55.676380070889785
55.676380070889785
55.676380070889785
52.967021866288015
52.902375845777996
52.84233240621814
52.78670241892995
52.73533217165336
52.688100207085185
52.64491415123875
52.60570841993745
52.57044266388306
82.85265776011612
82.31234222951524
81.77786730675601
81.24912525015365
80.72593747763852
80.20805580940606
79.69515954495122
79.18684952225732
78.68264262641318
78.18197333951774
77.68421464267435
77.18873473501769
76.69498437024755
76.2025371211405
75.59284307386115
74.98429435815996
74.3768005033454
73.7702600548889
73.16456895406189
72.55964586580171
71.95549153398034
71.35231124948568
55.676380070889785
55.676380070889785
55.676380070889785
55.676380070889785
55.676380070889785
55.676380070889785
55.676380070889785
55.676380070889785
55.676380070889785
55.676380070889785
52.136813902062926
52.09516460140954
52.05444534548623
52.014788547237345
51.976298694528175
51.93905448533177
51.90311312695993
51.86851324994609
51.835276776778024
82.83283659340358
82.29248406368046
81.75792504832341
81.22903691220715
80.70562081869949
80.18740366868506
79.67403246036646
79.16506322432812
78.65994748989257
78.15802065206255
77.65850313031106
77.16054776291702
76.66338494367528
76.1664866768879
75.55056377878856
74.93563917671375
74.32158027573675
73.70818843021654
73.09516802689784
72.48207551535126
71.86818842571759
71.25237952828766
70.62720498783152
58.286128798910966
54.97642435855788
53.78610947736688
53.43392343439641
53.30865383529739
53.25026318569443
53.16216807721014
52.945054884820564
52.13527935803265
52.09321367333599
52.05234566647125
52.01228483138008
51.973213009523214
51.93522016256536
51.898376613678884
51.862735102888124
51.82833210949307
51.79518866046309
82.81316652549621
82.272782972541
81.73815677976111
81.2091491993703
80.68554085726305
80.16703454287715
79.65324646028608
79.14368968816311
78.63775211013173
78.13467055881536
77.63350862749893
77.1331845556702
76.63267581470866
76.13136625750258
75.50929918372144
74.88812284872272
74.26768899961425
73.64772856043662
73.02779390203264
72.40716587744846
71.78466559627545
71.15785741558427
70.52314262345915
58.45334009023042
54.941012717629945
53.754728723880575
53.38733435514614
53.261151297825336
53.20054346136451
53.11265440196413
52.881816306837635
52.092373030988206
52.05106047015103
52.01062668551675
51.9711111400401
51.93253347186527
51.8949660937294
51.85846889333697
51.82308906979445
51.78886012575578
51.75580167204066
82.79365078076617
82.2532431578762
81.71856896497707
81.18947126307279
80.66570980044852
80.1469645222033
79.63282303448085
79.12275836941852
78.61609821930465
78.11198440040158
77.60932383100587
77.10677677944186
76.60300333142641
76.09729552345601
75.46914544409051
74.84184917469172
74.215292972406
73.5891875717868
72.96300613009684
72.33590976716847
71.70659918833123
71.07322948402071
70.43353084899444
58.58708307341996
54.90864684996196
53.722054156893265
53.342785580276804
53.215386146426376
53.153060020621176
53.06507342061687
52.82292752822002
52.05062965600745
52.00993730834475
51.97003355112345