# vtk DataFile Version 2.0
Niestacjonarne zagadnienie cieplne - ogrzewanie wody w garnku stalowym
ASCII
DATASET UNSTRUCTURED_GRID
POINTS 1353 float
0.0 0.0 0.0
0.0 0.0015384615384615385 0.0
0.0 0.003076923076923077 0.0
0.0 0.004615384615384615 0.0
0.0 0.006153846153846154 0.0
0.0 0.007692307692307693 0.0
0.0 0.00923076923076923 0.0
0.0 0.010769230769230769 0.0
0.0 0.012307692307692308 0.0
0.0 0.013846153846153847 0.0
0.0 0.015384615384615385 0.0
0.0 0.016923076923076923 0.0
0.0 0.01846153846153846 0.0
0.0 0.02 0.0
0.0 0.020555555555555556 0.0
0.0 0.021111111111111112 0.0
0.0 0.021666666666666667 0.0
0.0 0.022222222222222223 0.0
0.0 0.02277777777777778 0.0
0.0 0.023333333333333334 0.0
0.0 0.02388888888888889 0.0
0.0 0.024444444444444446 0.0
0.0 0.025 0.0
0.0 0.036111111111111115 0.0
0.0 0.04722222222222222 0.0
0.0 0.058333333333333334 0.0
0.0 0.06944444444444445 0.0
0.0 0.08055555555555556 0.0
0.0 0.09166666666666667 0.0
0.0 0.10277777777777777 0.0
0.0 0.1138888888888889 0.0
0.0 0.125 0.0
0.0 0.12555555555555556 0.0
0.0 0.12611111111111112 0.0
0.0 0.12666666666666668 0.0
0.0 0.1272222222222222 0.0
0.0 0.12777777777777777 0.0
0.0 0.12833333333333333 0.0
0.0 0.1288888888888889 0.0
0.0 0.12944444444444445 0.0
0.0 0.13 0.0
5.555555555555556E-4 0.0 0.0
5.555555555555556E-4 0.0015384615384615385 0.0
5.555555555555556E-4 0.003076923076923077 0.0
5.555555555555556E-4 0.004615384615384615 0.0
5.555555555555556E-4 0.006153846153846154 0.0
5.555555555555556E-4 0.007692307692307693 0.0
5.555555555555556E-4 0.00923076923076923 0.0
5.555555555555556E-4 0.010769230769230769 0.0
5.555555555555556E-4 0.012307692307692308 0.0
5.555555555555556E-4 0.013846153846153847 0.0
5.555555555555556E-4 0.015384615384615385 0.0
5.555555555555556E-4 0.016923076923076923 0.0
5.555555555555556E-4 0.01846153846153846 0.0
5.555555555555556E-4 0.02 0.0
5.555555555555556E-4 0.020555555555555556 0.0
5.555555555555556E-4 0.021111111111111112 0.0
5.555555555555556E-4 0.021666666666666667 0.0
5.555555555555556E-4 0.022222222222222223 0.0
5.555555555555556E-4 0.02277777777777778 0.0
5.555555555555556E-4 0.023333333333333334 0.0
5.555555555555556E-4 0.02388888888888889 0.0
5.555555555555556E-4 0.024444444444444446 0.0
5.555555555555556E-4 0.025 0.0
5.555555555555556E-4 0.036111111111111115 0.0
5.555555555555556E-4 0.04722222222222222 0.0
5.555555555555556E-4 0.058333333333333334 0.0
5.555555555555556E-4 0.06944444444444445 0.0
5.555555555555556E-4 0.08055555555555556 0.0
5.555555555555556E-4 0.09166666666666667 0.0
5.555555555555556E-4 0.10277777777777777 0.0
5.555555555555556E-4 0.1138888888888889 0.0
5.555555555555556E-4 0.125 0.0
5.555555555555556E-4 0.12555555555555556 0.0
5.555555555555556E-4 0.12611111111111112 0.0
5.555555555555556E-4 0.12666666666666668 0.0
5.555555555555556E-4 0.1272222222222222 0.0
5.555555555555556E-4 0.12777777777777777 0.0
5.555555555555556E-4 0.12833333333333333 0.0
5.555555555555556E-4 0.1288888888888889 0.0
5.555555555555556E-4 0.12944444444444445 0.0
5.555555555555556E-4 0.13 0.0
0.0011111111111111111 0.0 0.0
0.0011111111111111111 0.0015384615384615385 0.0
0.0011111111111111111 0.003076923076923077 0.0
0.0011111111111111111 0.004615384615384615 0.0
0.0011111111111111111 0.006153846153846154 0.0
0.0011111111111111111 0.007692307692307693 0.0
0.0011111111111111111 0.00923076923076923 0.0
0.0011111111111111111 0.010769230769230769 0.0
0.0011111111111111111 0.012307692307692308 0.0
0.0011111111111111111 0.013846153846153847 0.0
0.0011111111111111111 0.015384615384615385 0.0
0.0011111111111111111 0.016923076923076923 0.0
0.0011111111111111111 0.01846153846153846 0.0
0.0011111111111111111 0.02 0.0
0.0011111111111111111 0.020555555555555556 0.0
0.0011111111111111111 0.021111111111111112 0.0
0.0011111111111111111 0.021666666666666667 0.0
0.0011111111111111111 0.022222222222222223 0.0
0.0011111111111111111 0.02277777777777778 0.0
0.0011111111111111111 0.023333333333333334 0.0
0.0011111111111111111 0.02388888888888889 0.0
0.0011111111111111111 0.024444444444444446 0.0
0.0011111111111111111 0.025 0.0
0.0011111111111111111 0.036111111111111115 0.0
0.0011111111111111111 0.04722222222222222 0.0
0.0011111111111111111 0.058333333333333334 0.0
0.0011111111111111111 0.06944444444444445 0.0
0.0011111111111111111 0.08055555555555556 0.0
0.0011111111111111111 0.09166666666666667 0.0
0.0011111111111111111 0.10277777777777777 0.0
0.0011111111111111111 0.1138888888888889 0.0
0.0011111111111111111 0.125 0.0
0.0011111111111111111 0.12555555555555556 0.0
0.0011111111111111111 0.12611111111111112 0.0
0.0011111111111111111 0.12666666666666668 0.0
0.0011111111111111111 0.1272222222222222 0.0
0.0011111111111111111 0.12777777777777777 0.0
0.0011111111111111111 0.12833333333333333 0.0
0.0011111111111111111 0.1288888888888889 0.0
0.0011111111111111111 0.12944444444444445 0.0
0.0011111111111111111 0.13 0.0
0.0016666666666666666 0.0 0.0
0.0016666666666666666 0.0015384615384615385 0.0
0.0016666666666666666 0.003076923076923077 0.0
0.0016666666666666666 0.004615384615384615 0.0
0.0016666666666666666 0.006153846153846154 0.0
0.0016666666666666666 0.007692307692307693 0.0
0.0016666666666666666 0.00923076923076923 0.0
0.0016666666666666666 0.010769230769230769 0.0
0.0016666666666666666 0.012307692307692308 0.0
0.0016666666666666666 0.013846153846153847 0.0
0.0016666666666666666 0.015384615384615385 0.0
0.0016666666666666666 0.016923076923076923 0.0
0.0016666666666666666 0.01846153846153846 0.0
0.0016666666666666666 0.02 0.0
0.0016666666666666666 0.020555555555555556 0.0
0.0016666666666666666 0.021111111111111112 0.0
0.0016666666666666666 0.021666666666666667 0.0
0.0016666666666666666 0.022222222222222223 0.0
0.0016666666666666666 0.02277777777777778 0.0
0.0016666666666666666 0.023333333333333334 0.0
0.0016666666666666666 0.02388888888888889 0.0
0.0016666666666666666 0.024444444444444446 0.0
0.0016666666666666666 0.025 0.0
0.0016666666666666666 0.036111111111111115 0.0
0.0016666666666666666 0.04722222222222222 0.0
0.0016666666666666666 0.058333333333333334 0.0
0.0016666666666666666 0.06944444444444445 0.0
0.0016666666666666666 0.08055555555555556 0.0
0.0016666666666666666 0.09166666666666667 0.0
0.0016666666666666666 0.10277777777777777 0.0
0.0016666666666666666 0.1138888888888889 0.0
0.0016666666666666666 0.125 0.0
0.0016666666666666666 0.12555555555555556 0.0
0.0016666666666666666 0.12611111111111112 0.0
0.0016666666666666666 0.12666666666666668 0.0
0.0016666666666666666 0.1272222222222222 0.0
0.0016666666666666666 0.12777777777777777 0.0
0.0016666666666666666 0.12833333333333333 0.0
0.0016666666666666666 0.1288888888888889 0.0
0.0016666666666666666 0.12944444444444445 0.0
0.0016666666666666666 0.13 0.0
0.0022222222222222222 0.0 0.0
0.0022222222222222222 0.0015384615384615385 0.0
0.0022222222222222222 0.003076923076923077 0.0
0.0022222222222222222 0.004615384615384615 0.0
0.0022222222222222222 0.006153846153846154 0.0
0.0022222222222222222 0.007692307692307693 0.0
0.0022222222222222222 0.00923076923076923 0.0
0.0022222222222222222 0.010769230769230769 0.0
0.0022222222222222222 0.012307692307692308 0.0
0.0022222222222222222 0.013846153846153847 0.0
0.0022222222222222222 0.015384615384615385 0.0
0.0022222222222222222 0.016923076923076923 0.0
0.0022222222222222222 0.01846153846153846 0.0
0.0022222222222222222 0.02 0.0
0.0022222222222222222 0.020555555555555556 0.0
0.0022222222222222222 0.021111111111111112 0.0
0.0022222222222222222 0.021666666666666667 0.0
0.0022222222222222222 0.022222222222222223 0.0
0.0022222222222222222 0.02277777777777778 0.0
0.0022222222222222222 0.023333333333333334 0.0
0.0022222222222222222 0.02388888888888889 0.0
0.0022222222222222222 0.024444444444444446 0.0
0.0022222222222222222 0.025 0.0
0.0022222222222222222 0.036111111111111115 0.0
0.0022222222222222222 0.04722222222222222 0.0
0.0022222222222222222 0.058333333333333334 0.0
0.0022222222222222222 0.06944444444444445 0.0
0.0022222222222222222 0.08055555555555556 0.0
0.0022222222222222222 0.09166666666666667 0.0
0.0022222222222222222 0.10277777777777777 0.0
0.0022222222222222222 0.1138888888888889 0.0
0.0022222222222222222 0.125 0.0
0.0022222222222222222 0.12555555555555556 0.0
0.0022222222222222222 0.12611111111111112 0.0
0.0022222222222222222 0.12666666666666668 0.0
0.0022222222222222222 0.1272222222222222 0.0
0.0022222222222222222 0.12777777777777777 0.0
0.0022222222222222222 0.12833333333333333 0.0
0.0022222222222222222 0.1288888888888889 0.0
0.0022222222222222222 0.12944444444444445 0.0
0.0022222222222222222 0.13 0.0
0.002777777777777778 0.0 0.0
0.002777777777777778 0.0015384615384615385 0.0
0.002777777777777778 0.003076923076923077 0.0
0.002777777777777778 0.004615384615384615 0.0
0.002777777777777778 0.006153846153846154 0.0
0.002777777777777778 0.007692307692307693 0.0
0.002777777777777778 0.00923076923076923 0.0
0.002777777777777778 0.010769230769230769 0.0
0.002777777777777778 0.012307692307692308 0.0
0.002777777777777778 0.013846153846153847 0.0
0.002777777777777778 0.015384615384615385 0.0
0.002777777777777778 0.016923076923076923 0.0
0.002777777777777778 0.01846153846153846 0.0
0.002777777777777778 0.02 0.0
0.002777777777777778 0.020555555555555556 0.0
0.002777777777777778 0.021111111111111112 0.0
0.002777777777777778 0.021666666666666667 0.0
0.002777777777777778 0.022222222222222223 0.0
0.002777777777777778 0.02277777777777778 0.0
0.002777777777777778 0.023333333333333334 0.0
0.002777777777777778 0.02388888888888889 0.0
0.002777777777777778 0.024444444444444446 0.0
0.002777777777777778 0.025 0.0
0.002777777777777778 0.036111111111111115 0.0
0.002777777777777778 0.04722222222222222 0.0
0.002777777777777778 0.058333333333333334 0.0
0.002777777777777778 0.06944444444444445 0.0
0.002777777777777778 0.08055555555555556 0.0
0.002777777777777778 0.09166666666666667 0.0
0.002777777777777778 0.10277777777777777 0.0
0.002777777777777778 0.1138888888888889 0.0
0.002777777777777778 0.125 0.0
0.002777777777777778 0.12555555555555556 0.0
0.002777777777777778 0.12611111111111112 0.0
[...]
POINT_DATA 1353
SCALARS Temperatura float 1
LOOKUP_TABLE default
105.96852911175291
105.4469728963615
104.9302203389905
104.41788499218583
103.90960435707882
103.4049298302627
102.90328410339202
102.40390639119605
101.90577810630059
101.4074798517713
100.90703896701676
100.40108507030742
99.88554918790413
99.33707687764516
98.62064403968687
97.94718382117858
97.28711564107681
96.63530746940323
95.98857611786835
95.34488160138727
94.70275832450396
94.06115031002219
93.41936166026424
82.23066205364569
78.17118790679942
76.97661549416418
76.57223495574002
76.43663772650181
76.3574434065089
76.22840679643382
75.82359575704723
74.72683577657368
74.66607604763107
74.60578243956
74.54602381466644
74.48685375716401
74.42831378411053
74.3704357942335
74.31324362907374
74.25675387356881
74.20097615272721
105.99414680551975
105.47248283780425
104.95559584722052
104.44313180657579
103.93472877520205
103.4299413648954
102.9281950920511
102.4287346344189
101.93054500007476
101.43223726647045
100.93178483016955
100.42625414365389
99.90993804557367
99.37088512784132
98.69178933941353
98.0215291143025
97.36321259193579
96.71212270567557
96.06569469480272
95.42205337956543
94.77979655217119
94.1378825847722
93.49560886060017
82.28215273311989
78.22964533926485
77.03478351882195
76.63068650022184
76.49514344881102
76.41599122734824
76.28693102767984
75.88283085709509
74.7834386790718
74.72257274227653
74.66218286526754
74.60233608533488
74.54308435880968
74.48446800352096
74.42651819884418
74.36925846014356
74.3127052891574
74.2568683252645
106.01986008563658
105.49814746532266
104.98116925140282
104.4686226337808
103.96015488527809
103.45532868037887
102.95357925600256
102.45416489586404
101.95609491583309
101.45801326959614
100.95799326714153
100.45321316543983
99.93854081191648
99.40883388905024
98.74605584780707
98.08724502645286
97.43412360910516
96.78620901256586
96.14187732738823
95.49966427210249
94.858312247568
94.21680377369299
93.57440315356527
82.30918583426525
78.28614107261227
77.0927485503425
76.69036041696292
76.55524688830468
76.47638827851351
76.34751038140551
75.94639525199662
74.84132103747324
74.78026256006017
74.71970916486568
74.65972185049503
74.60034734233683
74.54162224455527
74.48357563062254
74.42623016385888
74.36960222120007
74.31370156799991
106.0456980764763
105.52396756638444
105.00693951072512
104.49435536923788
103.98587955466996
103.48108753053694
102.97943033581026
102.48018927614812
101.98241057335171
101.48480050427575
100.98556433433309
100.48208116697234
99.97044681445337
99.44848683378
98.79706375032103
98.14775614695586
97.501570899407
96.85848346497156
96.21772624823454
95.57820392114327
94.93878875290365
94.29844373727128
93.6563334788904
82.31124749342115
78.34092895951635
77.15044202360517
76.75128281544677
76.61694201690719
76.53864482433524
76.41012198641013
76.01433831189331
74.90044925720373
74.83911804554972
74.77834038655739
74.71816563151161
74.65863094612314
74.59976669747151
74.54159892905955
74.4841495340791
74.42743523245471
74.37146633928235
106.07167560932109
105.54994634525492
105.03290453303215
104.5203264282235
104.01189757166577
103.50721072987501
103.00573836952654
102.50679304323502
102.00947026054652
101.51256199368339
101.01442721554581
100.51277554926962
100.0047963954015
99.48951242518307
98.84732431626628
98.20644099898051
97.56736942194651
96.9300836076747
96.29405130618184
95.65838061499998
95.02197414930826
94.38367101330337
93.74240731026637
82.28748057008461
78.39444355190325
77.20774503659112
76.81349831914345
76.68021684388331
76.60277738135935
76.47472533631252
76.08674087694247
74.96076408392103
74.89909233258435
74.83804225637812
74.77764312053326
74.71791698916788
74.65888580546374
74.60057288070396
74.54300070266251
74.48618773740488
74.43014577448209
106.09780022880656
105.57608589158741
105.05906146793467
104.54653067475948
104.03820168045134
103.53368834886322
103.03248956709943
102.53395623216552
102.03724419652079
101.54124730522896
101.04450324510343
100.5451029634664
100.04104694650137
99.53180961932513
98.8978528936055
98.26482020414053
97.63291837942778
97.00202946978274
96.37166737628971
95.7409835017687
95.10879760205317
94.47367228585429
93.83409941644321
82.23665658756305
78.44731593292958
77.26448092617525
76.8770730913117
76.74505207580083
76.66880975878303
76.54126076302359
76.16371762942855
75.02217659315922
74.96011926954775
74.89877044733132
74.8381256628535
74.77818463777962
74.71896052513503
74.66047703660999
74.60276105789575
74.54583545658816
74.48971500050612
106.1240750010181
105.60238631621694
105.08540640083059
104.5729614605235
104.06478264347525
103.56050785187301
103.05966661287754
102.56165410794536
102.0656952173625
101.57079731800938
101.07569469751192
100.57885145808747
100.07884166139516
99.5753024756634
98.94909826244157
98.32366594355086
97.69904258561273
97.075046091185
96.45120847303022
95.82670771439078
95.20023292217884
94.56991121654296
93.93343778662486
82.15713101102708
78.50039774168663
77.32040415960591
76.94209935879404
76.81141910933381
76.73677460956316
76.60964715655834
76.24542076885628
75.08456148637016
75.02211493734154
74.96047860478134
74.89958916933296
74.83941702322727
74.77997089167316
74.72128612053369
74.6634005461357
74.60634522475951
74.55013980644597
106.15049980712197
105.62884565885845
105.11193410515483
104.5996106424217
104.09162933084009
103.58765427426067
103.0872490158027
102.58985765633778
102.0947802690311
101.60114538728068
101.10789096298508
100.61382122373007
100.11792285142333
99.61990147470664
99.00124330119709
98.38334396757523
97.76616215134163
97.14950910687502
96.53298628698326
95.91589385944053
95.29704789388678
94.67400613480461
94.04315319935735
82.04677380476892
78.5547960401342
77.37518459579711
77.00870179407276
76.87927719872927
76.80671561129643
76.67977872534979
76.33204554466869
75.14774593348102
75.08498480478858
75.02313378736602
74.9620374175998
74.90160763938144
74.84189727513771
74.78296902642232
74.72487982054253
74.66767285115277
74.61137444014757
106.17707203997428
105.65546001043084
105.13863792713529
104.62646859917004
104.11872882907207
103.6151104325604
103.11521347579456
102.61853423530398
102.12445170348761
101.63221901474749
101.14097582577489
100.64983015158057
100.15808459391636
99.66549812332255
99.05431898877487
98.4439735857912
97.83440406102812
97.22546972982362
96.61691207059272
96.00830260209172
95.3989130481965
94.78757660002034
94.16693819284696
81.90286146085653
78.61192345118847
77.42838559274199
77.07704631046033
76.9485695792911
76.87869038041347
76.75152075926394
76.42383748120704
75.21149504003127
75.14855865362836
75.08684619679951
75.025512016178
74.96476166726168
74.9047176213832
74.84548531738629
74.78714680096238
74.72975987446392
74.67335844934934
106.20378704260627
105.6822236874122
105.16550976893431
104.6535242666715
104.14606656537822
103.64285715448798
103.14353427631033
102.64764827818361
102.15465847943798
101.66394198556544
101.17483225077571
100.68671120731246
100.19914750028292
99.71196711898119
99.10826395162798
98.50551939165732
97.90369289050443
97.30272267517539
96.70253059289563
96.1030446958358
95.50425634544024
94.90634122577688
80.02660165018985
80.02660165018985
80.02660165018985
80.02660165018985
80.02660165018985
80.02660165018985
80.02660165018985
80.02660165018985
80.02660165018985
80.02660165018985
75.21372273483011
75.15179163501935
75.09008485292782
75.02888459151606
74.96839882380226
74.90877868962306
74.85013162620749
74.79252936472759
74.73601276026976
106.72865940807993
106.20861316705904
105.69565052902787
105.18984406535779
104.69131756438992
104.20025788771409
103.71693397328917
103.24172424790206
102.7751537571159
102.31794197175894
101.87106073842924
101.43580054475281
101.01385163429276
100.60743693769592
100.115764688432
99.62800445373956
99.14475583501078
98.66665665794324
98.19438993206195
97.72868681343053
97.27032104124177
96.82008668037786
80.02660165018985
80.02660165018985
80.02660165018985
80.02660165018985
80.02660165018985
80.02660165018985
80.02660165018985
80.02660165018985
80.02660165018985
80.02660165018985
76.45504340059158
76.36121245697218
76.27291595531356
76.18986272256916
76.11182165820259
76.03861295342136
75.97010142607154
75.90619205284283
75.84682706963852
107.20913028589325
106.69009675387255
106.17937378192899
105.67701154343379
105.18308837804969
104.69770894939151
104.22100040384014
103.75310535934555
103.29417002244625
102.84432510692184
102.40365665830147
101.97216297944112
101.54968989802684
101.13582546354058
100.62838428817196
100.12273447829328
99.61867268659765
99.11596933812235
98.61436128972531
98.11354493060703
97.613170831874
97.11284208452157
80.02660165018985
80.02660165018985
80.02660165018985
80.02660165018985
80.02660165018985
80.02660165018985
80.02660165018985
80.02660165018985
80.02660165018985
80.02660165018985
76.79435174455215
76.7221170575629
76.65151156519114
76.58268923048497
76.51577097963907
76.45084954729286
76.38799318033801
76.32724825722002
76.26864104701028
107.58974200372379
107.0709894560645
106.560467957815
106.05818522658436
105.5641484653111
105.07836277925054
104.60082919557051
104.13154257116183
103.67048991229875
103.21764999319971
102.77299566268948
102.33650104741594
101.90815786204047
101.48800971080846
100.97292012061327
100.45991106731871
99.949030703691
99.44033761328895
98.93390450155937
98.42982209182725
97.92820300882487
97.42918514925606
80.02660165018985
80.02660165018985
80.02660165018985
80.02660165018985
80.02660165018985
80.02660165018985
80.02660165018985
80.02660165018985
80.02660165018985
80.02660165018985
76.91937388951351
76.84679156349746
76.77630380067593
76.70786080555669
76.64142441526867
76.57696580539302
76.5144637439736
76.45390333968778
76.39527519623796
107.86610875109456
107.34742460820272
106.83665091271268
106.33379044655447
105.83884361534204
105.3518086332528
104.87268181479882
104.40145798658222
103.93813098195288
103.48269407690543
103.03514004147885
102.59546013402964
102.16364055490104
101.73965304107162
101.21946352299571
100.70123017059865
100.18493639113456
99.67056189409013
99.15808123112343
98.64746215624287
98.13866382695448
97.63163494101065
80.02660165018985
80.02660165018985
80.02660165018985
80.02660165018985
80.02660165018985
80.02660165018985
80.02660165018985
80.02660165018985
80.02660165018985
80.02660165018985
76.95735999673916
76.88639850648957
76.81717309333993
76.74969991415318
76.68399063357835
76.62005335733923
76.55789333453322
76.49751346003723
76.43891461253905
108.05169365718746
107.53304444436517
107.02206968973557
106.51877251263329
106.02315388378244
105.5352125964158
105.05494520645247
104.58234592334043
104.11740643838829
103.66011569741198
103.21045967144751
102.76842128678129
102.33398094962034
101.9071187522607
101.38320716519172
100.86123821670292
100.34121161683574
99.82312817375902
99.30699031049787
98.79280267373825
98.28057284422786
97.77031214045789
80.02660165018985
80.02660165018985
80.02660165018985
80.02660165018985
80.02660165018985
80.02660165018985
80.02660165018985
80.02660165018985
80.02660165018985
80.02660165018985
76.97035950002434
76.89951729677652
76.83043889577317
76.76311795696151
76.69754949016594
76.63372950115938
76.57165472893091
76.51132245921671
76.4527304000494
108.15834595175394
107.6397153991998
107.12862075866514
106.62506506746804
106.12904924677761
105.6405721007759
105.15963032265856
104.68621851513521
104.22032923476178
103.76195306834231
103.31107874142673
102.86769323109017
102.43178176919241
102.00332739544689
101.47735661710989
100.95331077647161
100.43118627839846
99.91097911464672
99.39268468176057
98.8762975564318
98.36181121925473
97.84921772161995
80.02660165018985
80.02660165018985
80.02660165018985
80.02660165018985
80.02660165018985
80.02660165018985
80.02660165018985
80.02660165018985
80.02660165018985
80.02660165018985
76.9743541884593
76.90364651953854
76.83467157137812
76.76742948276421
76.70191985586206
76.63814189127265
76.57609448653024
76.51577630509229
76.45718582185656
108.1931222501249
107.6744975733853
107.16336324269417
106.65972235347918
106.16357595692277
105.67492306790099
105.19376067428765
104.7200837438802
104.25388522328839
103.79515602169904
103.34388497371506
102.90005878650817
102.4636620196143
102.03467727156342
101.50801824363157
100.98327945406544
100.46045838173774
99.93955265330463
99.42056014771956
98.90347912894707
98.38830841431454
97.87504758473173
80.02660165018985
80.02660165018985
80.02660165018985
80.02660165018985
80.02660165018985
80.02660165018985
80.02660165018985
80.02660165018985
80.02660165018985
80.02660165018985
76.9752897822814
76.90459077148687
76.83562796676279
76.76839897545419
76.70290164840412
76.63913399804234
76.57709413937604
76.51678024907018
76.45819053870022
108.15834595175458
107.63971539920044
107.12862075866575
106.62506506746861
106.12904924677811
105.64057210077631
105.15963032265896
104.68621851513565
104.22032923476223
103.76195306834279
103.31107874142724
102.86769323109073
102.43178176919298
102.00332739544744
101.47735661711046
100.95331077647218
100.431186278399
99.91097911464722
99.39268468176107
98.8762975564323
98.36181121925524
97.8492177216205
80.02660165018985
80.02660165018985
80.02660165018985
80.02660165018985
80.02660165018985
80.02660165018985
80.02660165018985
80.02660165018985
80.02660165018985
80.02660165018985
76.97435418846003
76.9036465195393
76.83467157137889
76.76742948276498
76.70191985586284
76.63814189127346
76.57609448653103
76.51577630509308
76.45718582185735
108.05169365718842
107.53304444436615
107.02206968973655
106.51877251263423
106.02315388378338
105.53521259641673
105.05494520645337
104.58234592334126
104.11740643838911
103.66011569741279
103.21045967144832
102.7684212867821
102.33398094962115
101.90711875226157
101.3832071651926
100.86123821670375
100.34121161683656
99.82312817375984
99.30699031049869
98.7928026737391
98.28057284422873
97.77031214045871
80.02660165018985
80.02660165018985
80.02660165018985
80.02660165018985
80.02660165018985
80.02660165018985
80.02660165018985
80.02660165018985
80.02660165018985
80.02660165018985
76.97035950002613
76.89951729677833
76.830438895775
76.7631179569634
76.69754949016783
76.63372950116127
76.57165472893283
76.51132245921865
76.45273040005132
107.86610875109521
107.34742460820334
106.83665091271327
106.33379044655504
105.8388436153426
105.35180863325331
104.8726818147993
104.40145798658266
103.93813098195328
103.48269407690583
103.03514004147934
102.59546013403016
102.1636405549016
101.73965304107219
101.21946352299632
100.70123017059926
100.18493639113515
99.67056189409067
99.15808123112383
98.64746215624315
98.13866382695471
97.63163494101084
80.02660165018985
80.02660165018985
80.02660165018985
80.02660165018985
80.02660165018985
80.02660165018985
80.02660165018985
80.02660165018985
80.02660165018985
80.02660165018985
76.9573599967437
76.88639850649425
76.81717309334468
76.74969991415794
76.6839906335831
76.6200533573439
76.55789333453778
76.49751346004167
76.43891461254347
107.5897420037242
107.07098945606495
106.56046795781552
106.05818522658492
105.56414846531166
105.0783627792511
104.6008291955711
104.13154257116241
103.67048991229937
103.21764999320037
102.77299566269011
102.33650104741652
101.90815786204098
101.48800971080897
100.97292012061381
100.45991106731915
99.94903070369146
99.44033761328946
98.93390450156001
98.42982209182796
97.92820300882558
97.42918514925675
80.02660165018985
80.02660165018985
80.02660165018985
80.02660165018985
80.02660165018985
80.02660165018985
80.02660165018985
80.02660165018985
80.02660165018985
80.02660165018985
76.91937388951719
76.84679156350121
76.77630380067976
76.70786080556059
76.64142441527264
76.57696580539702
76.51446374397766
76.45390333969192
76.3952751962421
107.20913028589291
106.6900967538722
106.1793737819286
105.67701154343338
105.18308837804928
104.69770894939117
104.2210004038398
103.7531053593452
103.2941700224459
102.84432510692153
102.40365665830126
101.972162979441
101.54968989802674
101.13582546354051
100.62838428817187
100.12273447829327
99.61867268659762
99.11596933812234
98.61436128972524
98.11354493060695
97.61317083187387
97.11284208452138
80.02660165018985
80.02660165018985
80.02660165018985
80.02660165018985
80.02660165018985
80.02660165018985
80.02660165018985
80.02660165018985
80.02660165018985
80.02660165018985
76.79435174455492
76.72211705756571
76.65151156519397
76.58268923048779
76.51577097964189
76.45084954729568
76.38799318034077
76.32724825722273
76.268641047013
106.72865940807911
106.20861316705825
105.69565052902706
105.18984406535701
104.69131756438915
104.20025788771335
103.7169339732885
103.24172424790139
102.77515375711528
102.31794197175839
101.8710607384288
101.43580054475247
101.01385163429245
100.60743693769567
100.1157646884318
99.62800445373935
99.14475583501057
98.66665665794302
98.19438993206174
97.72868681343031
97.27032104124156
96.82008668037763
80.02660165018985
80.02660165018985
80.02660165018985
80.02660165018985
80.02660165018985
80.02660165018985
80.02660165018985
80.02660165018985
80.02660165018985
80.02660165018985
76.45504340059338
76.36121245697403
76.27291595531548
76.18986272257112
76.11182165820456
76.03861295342337
75.97010142607355
75.90619205284489
75.84682706964058
106.20378704260513
105.68222368741107
105.16550976893335
104.65352426667067
104.14606656537757
103.64285715448744
103.14353427630982
102.64764827818318
102.15465847943761
101.66394198556506
101.17483225077525
100.686711207312
100.19914750028249
99.71196711898092
99.10826395162785
98.50551939165736
97.90369289050463
97.30272267517574
96.7025305928961
96.10304469583633
95.50425634544085
94.90634122577754
80.02660165018985
80.02660165018985
80.02660165018985
80.02660165018985
80.02660165018985
80.02660165018985
80.02660165018985
80.02660165018985
80.02660165018985
80.02660165018985
75.21372273483216
75.15179163502145
75.09008485292995
75.02888459151822
74.96839882380448
74.90877868962531
74.85013162620969
74.79252936472973
74.73601276027189
106.17707203997314
105.65546001042964
105.13863792713434
104.62646859916917
104.11872882907156
103.61511043255985
103.11521347579414
102.61853423530349
102.12445170348727
101.63221901474704
101.14097582577438
100.64983015158008
100.15808459391592
99.66549812332231
99.05431898877472
98.44397358579128
97.83440406102841
97.22546972982401
96.61691207059324
96.0083026020923
95.39891304819712
94.78757660002097
94.16693819284762
81.9028614608584
78.61192345118829
77.42838559274183
77.07704631046174
76.94856957929161
76.87869038041417
76.75152075926476
76.42383748120588
75.21149504003326
75.14855865363039
75.08684619680159
75.02551201618013
74.96476166726382
74.90471762138533
74.84548531738841
74.78714680096454
74.72975987446603
74.67335844935143
106.15049980712078
105.62884565885732
105.11193410515381
104.59961064242087
104.0916293308395
103.58765427426012
103.0872490158023
102.58985765633727
102.09478026903071
101.6011453872803
101.10789096298457
100.61382122372952
100.11792285142297
99.61990147470635
99.00124330119705
98.38334396757534
97.76616215134186
97.14950910687539
96.5329862869838
95.91589385944111
95.29704789388741
94.6740061348053
94.043153199358
82.04677380477092
78.55479604013408
77.37518459579705
77.00870179407424
76.87927719872981
76.80671561129712
76.67977872535063
76.33204554466751
75.14774593348302
75.08498480479064
75.02313378736811
74.96203741760183
74.90160763938351
74.84189727513979
74.7829690264244
74.7248798205446
74.66767285115483
74.61137444014965
106.12407500101682
105.60238631621579
105.08540640082961
104.5729614605227
104.06478264347457
103.56050785187247
103.05966661287702
102.5616541079448
102.06569521736205
101.57079731800903
101.07569469751138
100.57885145808704
100.0788416613948
99.57530247566316
98.94909826244152
98.32366594355092
97.69904258561293
97.07504609118536
96.45120847303073
95.82670771439138
95.20023292217952
94.56991121654373
93.93343778662569
82.15713101102905
78.5003977416866
77.32040415960599
76.94209935879559